/*--------------------------------*- C++ -*----------------------------------*\
  =========                 |
  \\      /  F ield         | OpenFOAM: The Open Source CFD Toolbox
   \\    /   O peration     | Website:  https://openfoam.org
    \\  /    A nd           | Version:  7
     \\/     M anipulation  |
\*---------------------------------------------------------------------------*/
FoamFile
{
    version     2.0;
    format      ascii;
    class       surfaceScalarField;
    location    "0";
    object      phi;
}
// * * * * * * * * * * * * * * * * * * * * * * * * * * * * * * * * * * * * * //

dimensions      [0 3 -1 0 0 0 0];

internalField   nonuniform List<scalar> 
59833
(
1.436830003e-13
4.229836723e-13
1.401798478e-13
5.701698355e-13
1.158985822e-13
5.909479292e-13
9.268308351e-14
5.89882184e-13
7.43336374e-14
5.850161297e-13
6.080174594e-14
5.801985869e-13
5.083314357e-14
5.766352618e-13
4.339063445e-14
5.741092049e-13
3.762828201e-14
5.724290416e-13
3.300980683e-14
5.712851651e-13
2.920369839e-14
5.704727935e-13
2.599928483e-14
5.698711001e-13
2.325754935e-14
5.694084209e-13
2.088262378e-14
5.690416096e-13
1.880566676e-14
5.6874364e-13
1.697554392e-14
5.684968048e-13
1.535318153e-14
5.682890429e-13
1.390797957e-14
5.681118811e-13
1.26154398e-14
5.679592169e-13
1.145555243e-14
5.678265645e-13
1.041166813e-14
5.6771056e-13
9.469710893e-15
5.676086339e-13
8.617610487e-15
5.675187725e-13
7.844900304e-15
5.674393856e-13
7.142418611e-15
5.673691558e-13
6.502097252e-15
5.67306997e-13
5.916789004e-15
5.672519822e-13
5.380150511e-15
5.672033138e-13
4.886530765e-15
5.671602937e-13
4.430897116e-15
5.671223088e-13
4.008754471e-15
5.670888162e-13
3.616092885e-15
5.67059334e-13
3.249321028e-15
5.670334464e-13
2.905225612e-15
5.670107717e-13
2.580915986e-15
5.669909852e-13
2.273790471e-15
5.669738028e-13
1.981488993e-15
5.669589783e-13
1.701864143e-15
5.669463028e-13
1.432941022e-15
5.669356005e-13
1.172881704e-15
5.66926737e-13
9.199201569e-16
5.669196358e-13
6.723687235e-16
5.669142281e-13
4.289268236e-16
5.669101188e-13
1.884136698e-16
5.669071901e-13
-4.997149672e-17
5.669050618e-13
-2.888238315e-16
5.669055285e-13
-5.293028461e-16
5.669071548e-13
-7.731009218e-16
5.669104727e-13
-1.021701209e-15
5.669152753e-13
-1.276032611e-15
5.669210028e-13
-1.537558568e-15
5.669282012e-13
-1.808050496e-15
5.669371661e-13
-2.089314456e-15
5.66947939e-13
-2.38326682e-15
5.669606263e-13
-2.691987995e-15
5.669753961e-13
-3.017768638e-15
5.669924542e-13
-3.363139475e-15
5.67012045e-13
-3.730919398e-15
5.670344528e-13
-4.124252456e-15
5.670600037e-13
-4.546662211e-15
5.670890823e-13
-5.00209717e-15
5.671221081e-13
-5.494993577e-15
5.67159569e-13
-6.030334263e-15
5.672020141e-13
-6.613725472e-15
5.672500643e-13
-7.251477938e-15
5.673044262e-13
-7.950712621e-15
5.673659085e-13
-8.719486596e-15
5.674354484e-13
-9.566960645e-15
5.675141454e-13
-1.050361638e-14
5.676033217e-13
-1.15415546e-14
5.677046161e-13
-1.269490034e-14
5.678200244e-13
-1.398037101e-14
5.679521488e-13
-1.541806516e-14
5.681043732e-13
-1.703259008e-14
5.682812032e-13
-1.885466711e-14
5.684887573e-13
-2.092350367e-14
5.687355144e-13
-2.32903526e-14
5.690334995e-13
-2.60241608e-14
5.69400486e-13
-2.922087231e-14
5.698633954e-13
-3.301965952e-14
5.70465464e-13
-3.763159469e-14
5.712786328e-13
-4.338896167e-14
5.724240523e-13
-5.082847618e-14
5.741062008e-13
-6.079450851e-14
5.76632686e-13
-7.432598684e-14
5.801981708e-13
-9.267625035e-14
5.850169278e-13
-1.158924096e-13
5.898828486e-13
-1.401756222e-13
5.909498887e-13
-1.436814226e-13
5.701724884e-13
4.229852567e-13
1.321861322e-13
2.907975451e-13
1.919908216e-13
5.10365157e-13
1.980066382e-13
5.849321188e-13
1.823901493e-13
6.054986918e-13
1.623327365e-13
6.05073555e-13
1.428989851e-13
5.996323243e-13
1.258248325e-13
5.937094425e-13
1.1134309e-13
5.885909548e-13
9.904256386e-14
5.847295781e-13
8.851059864e-14
5.81817144e-13
7.940733404e-14
5.79576074e-13
7.146950519e-14
5.778089448e-13
6.449506715e-14
5.763828749e-13
5.832711142e-14
5.752095806e-13
5.284232003e-14
5.742284466e-13
4.794260072e-14
5.733965383e-13
4.354887902e-14
5.726827785e-13
3.959647517e-14
5.720642984e-13
3.60316765e-14
5.715240291e-13
3.280919722e-14
5.710490566e-13
2.989030423e-14
5.70629466e-13
2.724143603e-14
5.702575154e-13
2.483318701e-14
5.699270343e-13
2.263956256e-14
5.696330237e-13
2.063742212e-14
5.693713096e-13
1.880606752e-14
5.691383647e-13
1.712692195e-14
5.689311405e-13
1.558328262e-14
5.687469661e-13
1.416011275e-14
5.685834756e-13
1.284387317e-14
5.684385605e-13
1.162236624e-14
5.683103346e-13
1.048460397e-14
5.681971085e-13
9.420676986e-15
5.680973854e-13
8.421642363e-15
5.680098192e-13
7.479409599e-15
5.679332308e-13
6.586642344e-15
5.678665837e-13
5.736658981e-15
5.678089753e-13
4.923347888e-15
5.67759628e-13
4.141084263e-15
5.67717878e-13
3.384665257e-15
5.676831698e-13
2.64927354e-15
5.676550408e-13
1.930435834e-15
5.676330786e-13
1.223725674e-15
5.676168407e-13
5.246447183e-16
5.676062826e-13
-1.72123773e-16
5.676018415e-13
-8.693505583e-16
5.676027657e-13
-1.57061729e-15
5.676084319e-13
-2.279285013e-15
5.676191506e-13
-3.000395094e-15
5.67636396e-13
-3.738655775e-15
5.676592738e-13
-4.498475685e-15
5.676880319e-13
-5.284457489e-15
5.677231583e-13
-6.101618162e-15
5.677651105e-13
-6.955401536e-15
5.678144202e-13
-7.851730128e-15
5.678717357e-13
-8.797090719e-15
5.679378251e-13
-9.798621883e-15
5.680135868e-13
-1.086421684e-14
5.681000579e-13
-1.200262611e-14
5.681984235e-13
-1.322357432e-14
5.683100408e-13
-1.453787759e-14
5.684364222e-13
-1.595757583e-14
5.685792782e-13
-1.74960705e-14
5.687405202e-13
-1.916828158e-14
5.689222872e-13
-2.099082226e-14
5.691269792e-13
-2.298220771e-14
5.693573065e-13
-2.516310873e-14
5.696163621e-13
-2.755667349e-14
5.69907723e-13
-3.01889469e-14
5.702356076e-13
-3.308942792e-14
5.706051097e-13
-3.629182147e-14
5.710224298e-13
-3.983505599e-14
5.714953946e-13
-4.376466588e-14
5.720339935e-13
-4.813466491e-14
5.726512122e-13
-5.301007721e-14
5.733641788e-13
-5.847035106e-14
5.741957963e-13
-6.461394877e-14
5.751771045e-13
-7.156452746e-14
5.763510728e-13
-7.947929086e-14
5.777781661e-13
-8.856067536e-14
5.79546859e-13
-9.907287517e-14
5.817908469e-13
-1.113575272e-13
5.84708706e-13
-1.258291388e-13
5.885778074e-13
-1.428948281e-13
5.936983821e-13
-1.623245424e-13
5.996278671e-13
-1.823800726e-13
6.050724768e-13
-1.979964793e-13
6.05499268e-13
-1.91983786e-13
5.849372043e-13
-1.321834146e-13
5.103721313e-13
2.908018463e-13
8.179809337e-14
2.089994628e-13
1.563873688e-13
4.357758875e-13
1.937406776e-13
5.475788308e-13
2.049805927e-13
5.942587729e-13
2.001053706e-13
6.099487905e-13
1.876610924e-13
6.12076616e-13
1.730345656e-13
6.083359691e-13
1.583296033e-13
6.032959345e-13
1.443462907e-13
5.987129158e-13
1.314096714e-13
5.947537763e-13
1.19596499e-13
5.913892667e-13
1.088703151e-13
5.885351466e-13
9.915186425e-14
5.861013434e-13
9.034849662e-14
5.840129637e-13
8.236858415e-14
5.822083739e-13
7.512760375e-14
5.806375329e-13
6.854985431e-14
5.79260542e-13
6.256823465e-14
5.780459316e-13
5.712331696e-14
5.769689601e-13
5.21622634e-14
5.760101241e-13
4.763781764e-14
5.751539256e-13
4.350745571e-14
5.743878912e-13
3.973270367e-14
5.737018008e-13
3.627860409e-14
5.730871374e-13
3.311330432e-14
5.725366232e-13
3.020773534e-14
5.720439478e-13
2.753535407e-14
5.716035353e-13
2.507193341e-14
5.712104001e-13
2.2795377e-14
5.708600449e-13
2.068555482e-14
5.705483953e-13
1.872414608e-14
5.702717557e-13
1.68944903e-14
5.700267768e-13
1.518143934e-14
5.69810449e-13
1.357121561e-14
5.69620056e-13
1.205127127e-14
5.694531885e-13
1.061015431e-14
5.693077145e-13
9.237378094e-15
5.691817656e-13
7.923299366e-15
5.690737208e-13
6.659002259e-15
5.689821891e-13
5.436193698e-15
5.68905992e-13
4.247106401e-15
5.688441413e-13
3.084372172e-15
5.687958257e-13
1.940852441e-15
5.68760373e-13
8.097376094e-16
5.68737409e-13
-3.153302991e-16
5.687269205e-13
-1.440790863e-15
5.687282371e-13
-2.573359502e-15
5.687410112e-13
-3.719749825e-15
5.687655515e-13
-4.886125678e-15
5.688027824e-13
-6.079506235e-15
5.688526649e-13
-7.307170328e-15
5.689157067e-13
-8.576667962e-15
5.689926666e-13
-9.896033109e-15
5.690844864e-13
-1.127390364e-14
5.691923015e-13
-1.271962803e-14
5.693174709e-13
-1.424338673e-14
5.694615944e-13
-1.585632028e-14
5.69626531e-13
-1.757066602e-14
5.698144143e-13
-1.939989849e-14
5.700276668e-13
-2.135887597e-14
5.702690292e-13
-2.346398869e-14
5.705415463e-13
-2.57333118e-14
5.708486131e-13
-2.818676062e-14
5.711939814e-13
-3.084625256e-14
5.715817919e-13
-3.373587808e-14
5.720166179e-13
-3.688208999e-14
5.72503532e-13
-4.03139208e-14
5.730482066e-13
-4.406324471e-14
5.736570605e-13
-4.816510468e-14
5.74337481e-13
-5.265813094e-14
5.75098149e-13
-5.75850789e-14
5.759493903e-13
-6.299351616e-14
5.769038435e-13
-6.893667504e-14
5.779771634e-13
-7.54744601e-14
5.791890074e-13
-8.267452443e-14
5.805642526e-13
-9.061318103e-14
5.821344616e-13
-9.93755862e-14
5.839395185e-13
-1.090539583e-13
5.860294551e-13
-1.197413941e-13
5.884656096e-13
-1.31517538e-13
5.913230211e-13
-1.444199063e-13
5.946932206e-13
-1.583740886e-13
5.986628944e-13
-1.730605878e-13
6.032643102e-13
-1.876746898e-13
6.083124786e-13
-2.001064578e-13
6.120596376e-13
-2.049741028e-13
6.09940136e-13
-1.937317576e-13
5.942569189e-13
-1.563808051e-13
5.475862647e-13
-8.179540712e-14
4.357867438e-13
2.090064434e-13
5.002358342e-14
1.589758798e-13
1.157537404e-13
3.70045749e-13
1.654871263e-13
4.978454444e-13
1.936553333e-13
5.6609059e-13
2.044190677e-13
5.99185053e-13
2.037018582e-13
6.127938575e-13
1.962335007e-13
6.158043474e-13
1.856958826e-13
6.13833571e-13
1.737071384e-13
6.107016679e-13
1.613310641e-13
6.071298702e-13
1.491697702e-13
6.035505758e-13
1.375310453e-13
6.001738917e-13
1.265629452e-13
5.970694611e-13
1.163212481e-13
5.942546774e-13
1.068115775e-13
5.917180595e-13
9.80134055e-14
5.89435719e-13
8.989299526e-14
5.873809657e-13
8.241038144e-14
5.855285592e-13
7.552317039e-14
5.838561852e-13
6.918860991e-14
5.823446983e-13
6.336471631e-14
5.809778334e-13
5.801088971e-14
5.797417325e-13
5.308825549e-14
5.786244492e-13
4.855985742e-14
5.7761555e-13
4.439076464e-14
5.767057304e-13
4.054812902e-14
5.758865972e-13
3.700120566e-14
5.751504724e-13
3.372134315e-14
5.74490276e-13
3.068194846e-14
5.738994525e-13
2.785842754e-14
5.733719289e-13
2.522810378e-14
5.729020919e-13
2.277011817e-14
5.72484775e-13
2.046531329e-14
5.721152666e-13
1.829610675e-14
5.717892756e-13
1.624635619e-14
5.715029524e-13
1.430122105e-14
5.712528632e-13
1.244702321e-14
5.710359772e-13
1.067111027e-14
5.708496475e-13
8.961722617e-15
5.706915904e-13
7.307866489e-15
5.705598615e-13
5.699190749e-15
5.7045283e-13
4.125859136e-15
5.703691699e-13
2.578428094e-15
5.703078161e-13
1.047838668e-15
5.702680101e-13
-4.744903407e-16
5.702492608e-13
-1.99735824e-15
5.702511159e-13
-3.529747235e-15
5.702734109e-13
-5.080530217e-15
5.703163449e-13
-6.65829071e-15
5.703805533e-13
-8.272235768e-15
5.704666204e-13
-9.931974407e-15
5.705754558e-13
-1.164756773e-14
5.707082704e-13
-1.342967216e-14
5.708666014e-13
-1.528967708e-14
5.71052317e-13
-1.72398404e-14
5.712676447e-13
-1.929342998e-14
5.715151945e-13
-2.146486898e-14
5.717979805e-13
-2.376988396e-14
5.721194399e-13
-2.622565161e-14
5.724834453e-13
-2.885094206e-14
5.728943309e-13
-3.16662537e-14
5.733568696e-13
-3.469393679e-14
5.738763084e-13
-3.795830111e-14
5.744583585e-13
-4.14857049e-14
5.751092089e-13
-4.530462157e-14
5.758355482e-13
-4.944568256e-14
5.766446069e-13
-5.394169369e-14
5.775442318e-13
-5.882762197e-14
5.785430028e-13
-6.414054589e-14
5.796504186e-13
-6.991955422e-14
5.808771707e-13
-7.620555957e-14
5.822354084e-13
-8.304096271e-14
5.837392588e-13
-9.046904041e-14
5.854052526e-13
-9.853282173e-14
5.872527994e-13
-1.072730168e-13
5.893044583e-13
-1.167242112e-13
5.915856653e-13
-1.269078518e-13
5.941231714e-13
-1.378192106e-13
5.969408225e-13
-1.494030961e-13
6.00049515e-13
-1.615116895e-13
6.03431621e-13
-1.738381896e-13
6.070197183e-13
-1.857823363e-13
6.106070371e-13
-1.962904314e-13
6.137724084e-13
-2.037395109e-13
6.157615751e-13
-2.044350491e-13
6.127552079e-13
-1.936581013e-13
5.991631705e-13
-1.654843764e-13
5.660832159e-13
-1.157499219e-13
4.978518092e-13
-5.002160818e-14
3.700584431e-13
1.589848344e-13
3.262612801e-14
1.263497527e-13
8.547228515e-14
3.171995942e-13
1.347101912e-13
4.486075511e-13
1.70409185e-13
5.303916021e-13
1.918396463e-13
5.777546252e-13
2.012707095e-13
6.033628194e-13
2.02139204e-13
6.149358751e-13
1.973493445e-13
6.186234393e-13
1.89294582e-13
6.187564344e-13
1.794474959e-13
6.169769518e-13
1.687049497e-13
6.14293136e-13
1.5767289e-13
6.112059617e-13
1.467396359e-13
6.080027298e-13
1.361366108e-13
6.048577167e-13
1.259973128e-13
6.01857371e-13
1.163942964e-13
5.990387488e-13
1.073612386e-13
5.964140371e-13
9.890670899e-14
5.939831024e-13
9.102300847e-14
5.917398994e-13
8.36919288e-14
5.896757926e-13
7.688856582e-14
5.877812112e-13
7.058389822e-14
5.860464149e-13
6.474656742e-14
5.844617953e-13
5.934413052e-14
5.830180016e-13
5.434396014e-14
5.817059152e-13
4.971389249e-14
5.805166795e-13
4.542269362e-14
5.794416853e-13
4.144038913e-14
5.784725941e-13
3.773848408e-14
5.776013708e-13
3.429009743e-14
5.768203284e-13
3.107002597e-14
5.761221761e-13
2.805475229e-14
5.755000613e-13
2.522240789e-14
5.749476238e-13
2.255270241e-14
5.74458994e-13
2.002682724e-14
5.740288408e-13
1.762734175e-14
5.736523621e-13
1.533804833e-14
5.73325284e-13
1.314386177e-14
5.730438475e-13
1.103067688e-14
5.728047885e-13
8.985237342e-15
5.72605314e-13
6.995007161e-15
5.724430727e-13
5.048044764e-15
5.723161444e-13
3.132885242e-15
5.722229873e-13
1.238454586e-15
5.721624521e-13
-6.460069553e-16
5.721337334e-13
-2.53121143e-15
5.721363312e-13
-4.427894873e-15
5.721701048e-13
-6.346827733e-15
5.722352882e-13
-8.298818119e-15
5.72332554e-13
-1.029504913e-14
5.724628617e-13
-1.234714289e-14
5.726275599e-13
-1.446726172e-14
5.728283997e-13
-1.666823917e-14
5.730675893e-13
-1.896371811e-14
5.733478064e-13
-2.136829174e-14
5.736722288e-13
-2.389764648e-14
5.740445598e-13
-2.656870333e-14
5.74469048e-13
-2.939975366e-14
5.749505011e-13
-3.241058374e-14
5.754942867e-13
-3.562258161e-14
5.761063405e-13
-3.905881808e-14
5.767931184e-13
-4.274409344e-14
5.775615967e-13
-4.670493908e-14
5.784192177e-13
-5.096956279e-14
5.793738467e-13
-5.556772366e-14
5.804337235e-13
-6.053052041e-14
5.816074183e-13
-6.589007121e-14
5.829037973e-13
-7.16790552e-14
5.843320013e-13
-7.793007148e-14
5.859014492e-13
-8.467474829e-14
5.876218614e-13
-9.194249448e-14
5.89503168e-13
-9.975872512e-14
5.915555022e-13
-1.081422878e-13
5.937888272e-13
-1.171016515e-13
5.962121745e-13
-1.266291533e-13
5.988319705e-13
-1.366921668e-13
6.016486897e-13
-1.472193394e-13
6.046503533e-13
-1.580784291e-13
6.077999289e-13
-1.690388707e-13
6.110099558e-13
-1.797122554e-13
6.141050085e-13
-1.894939369e-13
6.168013912e-13
-1.97493617e-13
6.186067005e-13
-2.022401047e-13
6.18518903e-13
-2.013355444e-13
6.148570356e-13
-1.918768583e-13
6.032965324e-13
-1.704277581e-13
5.777140904e-13
-1.347172135e-13
5.303726678e-13
-8.547311329e-14
4.486077223e-13
-3.262544083e-14
3.172107732e-13
1.263593891e-13
2.190548634e-14
1.044442646e-13
6.347940204e-14
2.756256818e-13
1.07817748e-13
4.042692112e-13
1.450949098e-13
4.931144467e-13
1.719244254e-13
5.509251361e-13
1.886872094e-13
5.866000645e-13
1.966074167e-13
6.070156985e-13
1.976611978e-13
6.175696688e-13
1.941429972e-13
6.222746321e-13
1.877123541e-13
6.234075944e-13
1.794792911e-13
6.225262015e-13
1.701015972e-13
6.205836903e-13
1.601694381e-13
6.179348985e-13
1.500685108e-13
6.149586557e-13
1.400578497e-13
6.118680444e-13
1.303094458e-13
6.087871655e-13
1.20934142e-13
6.057893536e-13
1.119997006e-13
6.029175574e-13
1.035434546e-13
6.001961597e-13
9.558120548e-14
5.976380561e-13
8.8113534e-14
5.952488976e-13
8.113032606e-14
5.930296381e-13
7.461406183e-14
5.909780743e-13
6.854223729e-14
5.890898412e-13
6.288916391e-14
5.873590033e-13
5.762731733e-14
5.857785401e-13
5.272834791e-14
5.843406686e-13
4.81638318e-14
5.830371236e-13
4.390582171e-14
5.818593939e-13
3.992723729e-14
5.807989255e-13
3.620212849e-14
5.798472973e-13
3.270583736e-14
5.789963647e-13
2.941507935e-14
5.782383942e-13
2.630796233e-14
5.775661235e-13
2.336395752e-14
5.769728582e-13
2.056383539e-14
5.76452497e-13
1.788957647e-14
5.759995557e-13
1.532426576e-14
5.756091709e-13
1.285197695e-14
5.752770898e-13
1.045765184e-14
5.749996513e-13
8.126978006e-15
5.747737585e-13
5.846267491e-15
5.745968665e-13
3.602339274e-15
5.744669268e-13
1.382408482e-15
5.743823938e-13
-8.260307457e-16
5.743421833e-13
-3.035346883e-15
5.743456577e-13
-5.257877245e-15
5.743926455e-13
-7.506029799e-15
5.744834509e-13
-9.792352234e-15
5.746188866e-13
-1.212970542e-14
5.74800225e-13
-1.45313892e-14
5.750292538e-13
-1.701126359e-14
5.753082842e-13
-1.95838779e-14
5.756402138e-13
-2.226460327e-14
5.76028542e-13
-2.506976482e-14
5.764774007e-13
-2.801676983e-14
5.769915752e-13
-3.112422617e-14
5.77576515e-13
-3.441204446e-14
5.782383304e-13
-3.790151511e-14
5.789837688e-13
-4.161535002e-14
5.798201875e-13
-4.557767581e-14
5.807554569e-13
-4.981396437e-14
5.817978986e-13
-5.435088241e-14
5.829561496e-13
-5.921603922e-14
5.842390179e-13
-6.443760672e-14
5.856553057e-13
-7.00437796e-14
5.87213606e-13
-7.606203328e-14
5.889220658e-13
-8.251812296e-14
5.907881056e-13
-8.943474375e-14
5.928180844e-13
-9.682973751e-14
5.950168692e-13
-1.04713677e-13
5.973871211e-13
-1.130865806e-13
5.999284189e-13
-1.219333865e-13
6.026356455e-13
-1.31217641e-13
6.054964407e-13
-1.408726018e-13
6.084869424e-13
-1.50788597e-13
6.115646939e-13
-1.607949843e-13
6.146567549e-13
-1.706342774e-13
6.176392263e-13
-1.799220712e-13
6.202977738e-13
-1.880668303e-13
6.22249764e-13
-1.944240699e-13
6.231586226e-13
-1.978846259e-13
6.220672544e-13
-1.967685304e-13
6.174028203e-13
-1.887948853e-13
6.068834153e-13
-1.719935461e-13
5.864952037e-13
-1.451335189e-13
5.50854074e-13
-1.078360786e-13
4.930752288e-13
-6.348555401e-14
4.042572011e-13
-2.190625315e-14
2.756314755e-13
1.044531301e-13
1.526471422e-14
8.917954972e-14
4.785403794e-14
2.430363659e-13
8.613321383e-14
3.659900428e-13
1.217591003e-13
4.57488571e-13
1.505210026e-13
5.221632457e-13
1.712231301e-13
5.658979707e-13
1.841420449e-13
5.94096808e-13
1.903706737e-13
6.113410596e-13
1.913529433e-13
6.212923705e-13
1.885150974e-13
6.262454532e-13
1.831188153e-13
6.279224901e-13
1.759693514e-13
6.27733169e-13
1.676553443e-13
6.262489476e-13
1.586654016e-13
6.23948606e-13
1.49358931e-13
6.211745274e-13
1.399945847e-13
6.181515244e-13
1.307555782e-13
6.150283736e-13
1.217688397e-13
6.119043094e-13
1.131193258e-13
6.088456876e-13
1.048607333e-13
6.058966636e-13
9.702351621e-14
6.030861298e-13
8.962090753e-14
6.004322618e-13
8.265346984e-14
5.979455274e-13
7.611255788e-14
5.956307678e-13
6.998297273e-14
5.934886028e-13
6.424500022e-14
5.915165269e-13
5.887597849e-14
5.89709704e-13
5.385149949e-14
5.880616159e-13
4.914631895e-14
5.865645872e-13
4.473503575e-14
5.85210221e-13
4.05925856e-14
5.839897595e-13
3.66945862e-14
5.828943761e-13
3.301756383e-14
5.819154284e-13
2.953908674e-14
5.810446126e-13
2.623782579e-14
5.802741311e-13
2.309355993e-14
5.795967749e-13
2.00871407e-14
5.79005987e-13
1.720042751e-14
5.784958961e-13
1.441620282e-14
5.780613263e-13
1.171807446e-14
5.776977913e-13
9.090370334e-15
5.774014739e-13
6.518029292e-15
5.771692186e-13
3.986491243e-15
5.769984757e-13
1.481587033e-15
5.768873086e-13
-1.0105766e-15
5.768343573e-13
-3.503736719e-15
5.768388281e-13
-6.011582757e-15
5.769005016e-13
-8.547864279e-15
5.770197425e-13
-1.11264854e-14
5.771975177e-13
-1.376163959e-14
5.774353893e-13
-1.646793436e-14
5.777355586e-13
-1.926051101e-14
5.781008709e-13
-2.215516454e-14
5.785348775e-13
-2.516846157e-14
5.790418492e-13
-2.831785173e-14
5.796268012e-13
-3.162176708e-14
5.802955011e-13
-3.509970197e-14
5.810544608e-13
-3.877226373e-14
5.819109036e-13
-4.266118235e-14
5.828726994e-13
-4.678926465e-14
5.839482824e-13
-5.118027521e-14
5.851464808e-13
-5.585872358e-14
5.864763608e-13
-6.084953232e-14
5.879469728e-13
-6.617755602e-14
5.895670563e-13
-7.186691434e-14
5.91344679e-13
-7.79400932e-14
5.932867998e-13
-8.441675512e-14
5.953987427e-13
-9.131218151e-14
5.976835468e-13
-9.863524267e-14
6.001411601e-13
-1.06385753e-13
6.027673937e-13
-1.145510117e-13
6.055523937e-13
-1.231012547e-13
6.084786755e-13
-1.319836306e-13
6.115180341e-13
-1.411141725e-13
6.146269953e-13
-1.503670743e-13
6.177398537e-13
-1.595603484e-13
6.207579818e-13
-1.684366574e-13
6.235330761e-13
-1.766378931e-13
6.258404969e-13
-1.836762717e-13
6.273361583e-13
-1.889757263e-13
6.275492165e-13
-1.917360147e-13
6.259189259e-13
-1.906780579e-13
6.210093123e-13
-1.84369532e-13
6.110943133e-13
-1.713798606e-13
5.938937612e-13
-1.506236255e-13
5.657389883e-13
-1.218198872e-13
5.220503365e-13
-8.616425091e-14
4.574195988e-13
-4.786608074e-14
3.65959037e-13
-1.526706911e-14
2.430324688e-13
8.918605402e-14
1.109276571e-14
7.80867829e-14
3.681142088e-14
2.173177213e-13
6.921844939e-14
3.335830274e-13
1.016971327e-13
4.250099015e-13
1.301249095e-13
4.937354867e-13
1.525697197e-13
5.434531801e-13
1.685420868e-13
5.781244638e-13
1.784556505e-13
6.014275178e-13
1.832737198e-13
6.16474323e-13
1.83925679e-13
6.255934794e-13
1.813786077e-13
6.304695857e-13
1.765789866e-13
6.325328206e-13
1.701635402e-13
6.326644048e-13
1.626409417e-13
6.314712238e-13
1.544233572e-13
6.293921244e-13
1.45828821e-13
6.267460744e-13
1.37097019e-13
6.237601892e-13
1.284053388e-13
6.205960037e-13
1.198822734e-13
6.173687678e-13
1.116182066e-13
6.141607452e-13
1.036739902e-13
6.110303615e-13
9.608771863e-14
6.08018549e-13
8.888006869e-14
6.051531924e-13
8.205851044e-14
6.024523411e-13
7.562062802e-14
5.999264999e-13
6.955674088e-14
5.975804279e-13
6.385196804e-14
5.954144905e-13
5.84878454e-14
5.934257516e-13
5.344358484e-14
5.916088603e-13
4.869704121e-14
5.899567768e-13
4.42254433e-14
5.884613691e-13
4.000593313e-14
5.871138977e-13
3.601595092e-14
5.859054221e-13
3.223349692e-14
5.848270779e-13
2.863729574e-14
5.838703437e-13
2.520688528e-14
5.830271967e-13
2.192264802e-14
5.822902356e-13
1.876579952e-14
5.816527558e-13
1.57183459e-14
5.811087911e-13
1.276301968e-14
5.806531285e-13
9.883201009e-15
5.802813034e-13
7.062829401e-15
5.799896009e-13
4.286309929e-15
5.797750057e-13
1.5384154e-15
5.796352135e-13
-1.195815869e-15
5.795685988e-13
-3.931185559e-15
5.795742079e-13
-6.682436358e-15
5.796517625e-13
-9.464352131e-15
5.798016683e-13
-1.229185529e-14
5.800250309e-13
-1.518012049e-14
5.803236645e-13
-1.814468508e-14
5.807001333e-13
-2.120155526e-14
5.811577512e-13
-2.436730784e-14
5.817006403e-13
-2.765918415e-14
5.823337359e-13
-3.109517036e-14
5.83062798e-13
-3.469405709e-14
5.838943988e-13
-3.847546848e-14
5.848358836e-13
-4.245984856e-14
5.858952957e-13
-4.666838982e-14
5.870812533e-13
-5.112288595e-14
5.884027918e-13
-5.584548646e-14
5.898690952e-13
-6.08583275e-14
5.914892163e-13
-6.618300759e-14
5.932716678e-13
-7.183987116e-14
5.95223935e-13
-7.784705499e-14
5.973518781e-13
-8.421924288e-14
5.99659003e-13
-9.096605988e-14
6.021455748e-13
-9.809001991e-14
6.048075218e-13
-1.055839152e-13
6.076350701e-13
-1.134275038e-13
6.106109969e-13
-1.215833056e-13
6.137082099e-13
-1.299912672e-13
6.168866508e-13
-1.385619858e-13
6.200887666e-13
-1.471681328e-13
6.232331545e-13
-1.556336543e-13
6.26205389e-13
-1.637203343e-13
6.288446745e-13
-1.711116772e-13
6.309244394e-13
-1.77397709e-13
6.321265483e-13
-1.820775253e-13
6.320159925e-13
-1.845199992e-13
6.299917049e-13
-1.837613712e-13
6.251602918e-13
-1.788362246e-13
6.16084188e-13
-1.688284345e-13
6.010865417e-13
-1.527738405e-13
5.77839183e-13
-1.302616506e-13
5.432268098e-13
-1.01780705e-13
4.935694015e-13
-6.926279938e-14
4.249017036e-13
-3.682965651e-14
3.335259029e-13
-1.109677769e-14
2.172995966e-13
7.808926835e-14
8.366738958e-15
6.972004392e-14
2.889928231e-14
1.967851904e-13
5.613204967e-14
3.063502747e-13
8.498411615e-14
3.961578516e-13
1.118061578e-13
4.669134642e-13
1.344589171e-13
5.208004409e-13
1.519997586e-13
5.605836429e-13
1.643388575e-13
5.890884391e-13
1.719335489e-13
6.088796487e-13
1.75457016e-13
6.220700335e-13
1.75594848e-13
6.303317579e-13
1.731124034e-13
6.350152879e-13
1.686587984e-13
6.371180249e-13
1.627616124e-13
6.373684249e-13
1.558517311e-13
6.363020191e-13
1.482779015e-13
6.343199183e-13
1.403164854e-13
6.3172162e-13
1.321822453e-13
6.287302584e-13
1.240389243e-13
6.255121036e-13
1.160086918e-13
6.221909934e-13
1.081802243e-13
6.188588447e-13
1.006154687e-13
6.155833201e-13
9.335522893e-14
6.124134478e-13
8.642374195e-14
6.09383843e-13
7.983240929e-14
6.065178468e-13
7.358282176e-14
6.038300296e-13
6.766920042e-14
6.013281252e-13
6.208035511e-14
5.990146098e-13
5.680124125e-14
5.968879865e-13
5.181418571e-14
5.949438441e-13
4.709983849e-14
5.931757278e-13
4.263789916e-14
5.915758482e-13
3.840765901e-14
5.901356731e-13
3.438839426e-14
5.888463535e-13
3.055963961e-14
5.876991091e-13
2.690136758e-14
5.866854795e-13
2.339409441e-14
5.857975195e-13
2.001892995e-14
5.85027931e-13
1.675758573e-14
5.843701459e-13
1.359235232e-14
5.838183724e-13
1.050605489e-14
5.833676113e-13
7.481993358e-15
5.830136727e-13
4.503872225e-15
5.827531371e-13
1.555722883e-15
5.825833731e-13
-1.378179597e-15
5.825025114e-13
-4.313403392e-15
5.825094418e-13
-7.265446555e-15
5.826038157e-13
-1.02498239e-14
5.827860557e-13
-1.328215376e-14
5.830573708e-13
-1.637825039e-14
5.834197712e-13
-1.955421407e-14
5.838761072e-13
-2.282651545e-14
5.844300629e-13
-2.62120714e-14
5.850862067e-13
-2.972830718e-14
5.858499824e-13
-3.339319794e-14
5.867276998e-13
-3.722528051e-14
5.877264928e-13
-4.124362379e-14
5.888542389e-13
-4.546774313e-14
5.901194276e-13
-4.991744111e-14
5.915309646e-13
-5.46125534e-14
5.930979181e-13
-5.957257431e-14
5.948291306e-13
-6.481613244e-14
5.967327895e-13
-7.036028117e-14
5.988158318e-13
-7.621956305e-14
6.010832324e-13
-8.240479937e-14
6.035371299e-13
-8.892154742e-14
6.061757664e-13
-9.576815633e-14
6.08992199e-13
-1.029333386e-13
6.119727192e-13
-1.103931566e-13
6.15094903e-13
-1.181073037e-13
6.183251587e-13
-1.260145358e-13
6.216154567e-13
-1.340270954e-13
6.248992249e-13
-1.420239573e-13
6.28085643e-13
-1.498427629e-13
6.310519745e-13
-1.572703993e-13
6.336330393e-13
-1.64032488e-13
6.356067768e-13
-1.697828341e-13
6.366748062e-13
-1.740940782e-13
6.364378082e-13
-1.764409461e-13
6.343628834e-13
-1.761690406e-13
6.297198009e-13
-1.725121415e-13
6.215034081e-13
-1.647950463e-13
6.08367112e-13
-1.523466266e-13
5.886381375e-13
-1.347102525e-13
5.602028223e-13
-1.119772649e-13
5.204938359e-13
-8.509070273e-14
4.666828527e-13
-5.618991983e-14
3.960009333e-13
-2.892381181e-14
3.062598051e-13
-8.372423083e-15
1.967482156e-13
6.971683655e-14
6.504298913e-15
6.321574474e-14
2.310264959e-14
1.801868537e-13
4.596430848e-14
2.834886329e-13
7.1234636e-14
3.708875421e-13
9.584477615e-14
4.42303345e-13
1.177282364e-13
4.98917003e-13
1.357353837e-13
5.425765173e-13
1.494453976e-13
5.753784461e-13
1.589499076e-13
5.993751587e-13
1.646281487e-13
6.163918144e-13
1.66987104e-13
6.27972827e-13
1.666037549e-13
6.353986459e-13
1.640359362e-13
6.396858643e-13
1.597811619e-13
6.416232164e-13
1.542656333e-13
6.418175634e-13
1.478473459e-13
6.407382209e-13
1.408211104e-13
6.387478703e-13
1.334250693e-13
6.361263147e-13
1.258480572e-13
6.330891314e-13
1.182369718e-13
6.298020944e-13
1.107036423e-13
6.263921902e-13
1.033309662e-13
6.229560123e-13
9.617825081e-14
6.195661786e-13
8.928578128e-14
6.162763278e-13
8.267867563e-14
6.131249672e-13
7.637010703e-14
6.10138612e-13
7.036397241e-14
6.073342733e-13
6.46570817e-14
6.047215133e-13
5.924093878e-14
6.023041416e-13
5.410317313e-14
6.000816213e-13
4.922867741e-14
5.980502345e-13
4.460049823e-14
5.962040381e-13
4.020052176e-14
5.945356601e-13
3.600999106e-14
5.930368945e-13
3.200988597e-14
5.916992245e-13
2.818119319e-14
5.905141825e-13
2.450508926e-14
5.894736336e-13
2.096305584e-14
5.885699746e-13
1.753694308e-14
5.877962688e-13
1.420899395e-14
5.871463317e-13
1.096183978e-14
5.866147756e-13
7.778474665e-15
5.86197048e-13
4.642215044e-15
5.858894068e-13
1.536648243e-15
5.8568895e-13
-1.554426493e-15
5.855935963e-13
-4.647062063e-15
5.856020875e-13
-7.757229796e-15
5.857139936e-13
-1.090088697e-14
5.85929723e-13
-1.409404448e-14
5.862505385e-13
-1.735283533e-14
5.866785723e-13
-2.06935794e-14
5.872168616e-13
-2.413284006e-14
5.878693341e-13
-2.768746834e-14
5.886408456e-13
-3.137462788e-14
5.895371529e-13
-3.521179258e-14
5.905648759e-13
-3.921670604e-14
5.917314182e-13
-4.340728967e-14
5.930448351e-13
-4.780148294e-14
5.945136341e-13
-5.241699618e-14
5.961464917e-13
-5.727095276e-14
5.979518892e-13
-6.23793929e-14
5.999375858e-13
-6.775660804e-14
6.021100201e-13
-7.341426891e-14
6.044735083e-13
-7.936030579e-14
6.07029285e-13
-8.559749338e-14
6.097743332e-13
-9.212168633e-14
6.126999749e-13
-9.891964412e-14
6.157901722e-13
-1.059663768e-13
6.190194671e-13
-1.13221936e-13
6.223504775e-13
-1.20627572e-13
6.257308097e-13
-1.281011763e-13
6.290890761e-13
-1.355319518e-13
6.323300155e-13
-1.427742854e-13
6.353279919e-13
-1.49640891e-13
6.37918596e-13
-1.558954509e-13
6.398876152e-13
-1.61245264e-13
6.409566067e-13
-1.653346847e-13
6.407642456e-13
-1.677396546e-13
6.388428024e-13
-1.679631861e-13
6.345864248e-13
-1.654477364e-13
6.272043721e-13
-1.59621006e-13
6.156766982e-13
-1.499786955e-13
5.987248183e-13
-1.361440919e-13
5.748035502e-13
-1.180272725e-13
5.420860191e-13
-9.605053703e-14
4.985171161e-13
-7.136438965e-14
4.419967205e-13
-4.603577355e-14
3.706723311e-13
-2.313349143e-14
2.833575345e-13
-6.511648742e-15
1.801263818e-13
6.32051785e-14
5.177821839e-15
5.803792349e-14
1.875311103e-14
1.666115798e-13
3.798548999e-14
2.64256272e-13
5.995354558e-14
3.489195063e-13
8.214492641e-14
4.201119867e-13
1.026938216e-13
4.783681314e-13
1.204055341e-13
5.248648292e-13
1.346725763e-13
5.611114269e-13
1.453399312e-13
5.887078252e-13
1.525533998e-13
6.091783672e-13
1.566361666e-13
6.23890078e-13
1.580091944e-13
6.340256391e-13
1.571230338e-13
6.405720454e-13