/*--------------------------------*- C++ -*----------------------------------*\
  =========                 |
  \\      /  F ield         | OpenFOAM: The Open Source CFD Toolbox
   \\    /   O peration     | Website:  https://openfoam.org
    \\  /    A nd           | Version:  7
     \\/     M anipulation  |
\*---------------------------------------------------------------------------*/
FoamFile
{
    version     2.0;
    format      ascii;
    class       volVectorField;
    location    "0";
    object      U;
}
// * * * * * * * * * * * * * * * * * * * * * * * * * * * * * * * * * * * * * //

dimensions      [0 1 -1 0 0 0 0];

internalField   nonuniform List<vector> 
30439
(
(0.01890763374 0.0011832272 0)
(0.02966524392 0.008316747897 0)
(0.03098872745 0.00731363898 0)
(0.03057987712 0.005582194974 0)
(0.03030707232 0.004391702333 0)
(0.03019507321 0.003540710446 0)
(0.03012733892 0.002929752923 0)
(0.0300843956 0.00247569838 0)
(0.03005883 0.002131370464 0)
(0.03004317752 0.001860261257 0)
(0.03003310056 0.00163965221 0)
(0.03002627248 0.001455670674 0)
(0.03002141294 0.001299383918 0)
(0.03001780756 0.001164750929 0)
(0.03001504172 0.001047513014 0)
(0.03001286227 0.0009445571957 0)
(0.03001110706 0.0008535361901 0)
(0.03000966806 0.0007726327342 0)
(0.03000847091 0.000700406927 0)
(0.03000746309 0.0006356936637 0)
(0.03000660658 0.000577531841 0)
(0.03000587329 0.0005251147994 0)
(0.03000524196 0.000477755237 0)
(0.03000469617 0.0004348600881 0)
(0.03000422294 0.0003959123584 0)
(0.03000381182 0.000360457892 0)
(0.03000345419 0.0003280954165 0)
(0.03000314288 0.0002984690064 0)
(0.03000287178 0.0002712621303 0)
(0.03000263574 0.0002461928079 0)
(0.03000243027 0.0002230095563 0)
(0.03000225157 0.0002014878923 0)
(0.03000209631 0.0001814271999 0)
(0.03000196168 0.0001626479053 0)
(0.03000184524 0.0001449889396 0)
(0.03000174494 0.00012830539 0)
(0.03000165904 0.0001124663616 0)
(0.03000158611 9.735297117e-05 0)
(0.03000152505 8.285636601e-05 0)
(0.03000147563 6.887557699e-05 0)
(0.03000143967 5.531817681e-05 0)
(0.03000141963 4.210824217e-05 0)
(0.03000143147 2.915189223e-05 0)
(0.03000176289 1.614941501e-05 0)
(0.03000327984 3.087173157e-06 0)
(0.03000409334 -8.848818983e-06 0)
(0.03000290388 -2.107309097e-05 0)
(0.03000151282 -3.438820995e-05 0)
(0.03000143638 -4.750065816e-05 0)
(0.03000145725 -6.074939952e-05 0)
(0.03000149059 -7.43731262e-05 0)
(0.03000153969 -8.843509838e-05 0)
(0.03000160156 -0.000103017731 0)
(0.03000167515 -0.000118218998 0)
(0.03000176128 -0.0001341447839 0)
(0.03000186135 -0.000150910381 0)
(0.03000197709 -0.000168642928 0)
(0.03000211054 -0.0001874835393 0)
(0.03000226415 -0.0002075895329 0)
(0.03000244076 -0.0002291368409 0)
(0.03000264369 -0.0002523226431 0)
(0.03000287682 -0.0002773682243 0)
(0.03000314463 -0.000304522175 0)
(0.03000345236 -0.0003340639574 0)
(0.03000380614 -0.0003663080379 0)
(0.0300042132 -0.0004016087676 0)
(0.03000468224 -0.0004403664154 0)
(0.03000522378 -0.0004830347978 0)
(0.03000585089 -0.0005301312644 0)
(0.0300065801 -0.0005822500656 0)
(0.03000743278 -0.0006400805911 0)
(0.03000843718 -0.0007044325879 0)
(0.03000963146 -0.0007762713141 0)
(0.03001106831 -0.000856767131 0)
(0.0300128222 -0.0009473661086 0)
(0.03001500115 -0.001049892375 0)
(0.03001776716 -0.001166700059 0)
(0.03002137297 -0.001300908137 0)
(0.03002623279 -0.001456779662 0)
(0.03003306135 -0.001640360178 0)
(0.03004314281 -0.00186059598 0)
(0.03005880974 -0.002131393657 0)
(0.03008439888 -0.002475511033 0)
(0.030127335 -0.002929421207 0)
(0.0301950896 -0.003540305842 0)
(0.03030709953 -0.00439130384 0)
(0.03057989654 -0.005581854303 0)
(0.03098875923 -0.007313340373 0)
(0.02966529393 -0.008316592252 0)
(0.01890765836 -0.001183217154 0)
(0.01824303024 0.003035011246 0)
(0.02879498808 0.009680903364 0)
(0.03140501235 0.01083326473 0)
(0.03199483031 0.01019678333 0)
(0.03172996431 0.009122824917 0)
(0.03128966271 0.00808497989 0)
(0.03098558459 0.007094250497 0)
(0.03075901155 0.006253377672 0)
(0.03059921739 0.005547394591 0)
(0.03048620318 0.004946868555 0)
(0.03040396307 0.004430161775 0)
(0.03034200715 0.003981450101 0)
(0.0302937918 0.003588612745 0)
(0.03025524456 0.003242256373 0)
(0.03022374149 0.00293503925 0)
(0.03019752518 0.002661164217 0)
(0.0301753794 0.002415993185 0)
(0.03015643996 0.002195760989 0)
(0.03014007944 0.001997364297 0)
(0.0301258337 0.001818205683 0)
(0.03011335312 0.001656078433 0)
(0.03010236936 0.001509081745 0)
(0.03009267221 0.001375558391 0)
(0.0300840934 0.00125404898 0)
(0.03007649524 0.001143258179 0)
(0.03006976269 0.00104202959 0)
(0.03006379778 0.0009493267364 0)
(0.03005851582 0.0008642182958 0)
(0.03005384269 0.0007858662503 0)
(0.03004971308 0.0007135160497 0)
(0.0300460691 0.0006464881172 0)
(0.03004285951 0.0005841702817 0)
(0.03004003887 0.0005260108458 0)
(0.03003756717 0.0004715121615 0)
(0.03003540924 0.0004202246506 0)
(0.03003353444 0.0003717411851 0)
(0.03003191624 0.0003256918554 0)
(0.03003053196 0.0002817390892 0)
(0.03002936243 0.000239573118 0)
(0.03002839198 0.0001989078187 0)
(0.0300276083 0.0001594783988 0)
(0.03002699836 0.0001210430737 0)
(0.03002653603 8.337829245e-05 0)
(0.03002621424 4.622418107e-05 0)
(0.0300261613 9.250485775e-06 0)
(0.03002623497 -2.752344604e-05 0)
(0.03002634094 -6.44537507e-05 0)
(0.03002658234 -0.0001018033347 0)
(0.03002709837 -0.0001395723939 0)
(0.0300277405 -0.0001781365613 0)
(0.03002854252 -0.000217733142 0)
(0.03002952597 -0.0002585896103 0)
(0.03003070292 -0.0003009583629 0)
(0.03003208793 -0.0003451159921 0)
(0.03003369961 -0.0003913626401 0)
(0.03003556034 -0.0004400257024 0)
(0.03003769652 -0.0004914646423 0)
(0.03004013878 -0.0005460760788 0)
(0.03004292245 -0.0006042992255 0)
(0.03004608787 -0.0006666216986 0)
(0.03004968091 -0.0007335857101 0)
(0.0300537534 -0.0008057946622 0)
(0.03005836394 -0.0008839202653 0)
(0.03006357867 -0.0009687102871 0)
(0.0300694727 -0.001060997239 0)
(0.0300761318 -0.001161708392 0)
(0.03008365519 -0.001271877819 0)
(0.03009215931 -0.001392661347 0)
(0.03010178342 -0.001525355789 0)
(0.03011269752 -0.001671424287 0)
(0.03012511377 -0.001832530291 0)
(0.03013930257 -0.002010583537 0)
(0.03015561573 -0.002207802488 0)
(0.03017451944 -0.002426799177 0)
(0.03019664281 -0.002670694158 0)
(0.03022285075 -0.002943271873 0)
(0.03025435895 -0.003249190522 0)
(0.03029292283 -0.003594266472 0)
(0.03034116497 -0.003985857559 0)
(0.03040316419 -0.004433371255 0)
(0.0304854908 -0.004948958888 0)
(0.03059866815 -0.005548520852 0)
(0.03075868565 -0.006253812389 0)
(0.03098535589 -0.007094203608 0)
(0.03128958251 -0.008084648769 0)
(0.03173000305 -0.009122305607 0)
(0.03199488831 -0.01019620028 0)
(0.03140522162 -0.01083278393 0)
(0.02879525156 -0.009680643142 0)
(0.01824318624 -0.003034970364 0)
(0.01339544956 0.001669944674 0)
(0.0251839469 0.006970442426 0)
(0.03022285372 0.009617869458 0)
(0.03196263408 0.01079199032 0)
(0.03232038704 0.01086371393 0)
(0.03223124866 0.01030524787 0)
(0.03189263585 0.009570318738 0)
(0.03157620772 0.008770967476 0)
(0.03132705484 0.008002110588 0)
(0.03113055441 0.007286835743 0)
(0.03097404607 0.006631265632 0)
(0.03084750475 0.006035095401 0)
(0.03074350048 0.005494774175 0)
(0.03065676853 0.005005492286 0)
(0.03058349554 0.004562225206 0)
(0.03052086829 0.004160247813 0)
(0.03046678972 0.003795300991 0)
(0.03041968344 0.00346360555 0)
(0.03037835406 0.003161819999 0)
(0.03034188603 0.002886982184 0)
(0.03030956926 0.002636451641 0)
(0.0302808445 0.002407859573 0)
(0.03025526302 0.002199068161 0)
(0.03023245738 0.002008138547 0)
(0.03021212024 0.001833306078 0)
(0.03019398934 0.001672961184 0)
(0.03017783688 0.001525634303 0)
(0.0301634622 0.001389983699 0)
(0.03015068671 0.001264785134 0)
(0.03013935053 0.001148922719 0)
(0.0301293101 0.001041380459 0)
(0.03012043661 0.0009412341804 0)
(0.03011261471 0.0008476436755 0)
(0.03010574169 0.0007598450268 0)
(0.03009972653 0.0006771431128 0)
(0.03009448921 0.0005989043191 0)
(0.03008995992 0.0005245495242 0)
(0.03008607836 0.0004535474051 0)
(0.03008279296 0.0003854081166 0)
(0.03008006023 0.0003196773494 0)
(0.03007784393 0.0002559309539 0)
(0.03007611263 0.0001937700855 0)
(0.03007483508 0.000132815233 0)
(0.03007398633 7.269536787e-05 0)
(0.03007357322 1.304516425e-05 0)
(0.03007360748 -4.643469113e-05 0)
(0.03007409366 -0.0001061178313 0)
(0.03007501082 -0.0001663696639 0)
(0.03007636993 -0.0002274952703 0)
(0.03007816589 -0.0002898662469 0)
(0.03008042929 -0.0003538576844 0)
(0.03008319318 -0.000419858013 0)
(0.03008649255 -0.0004882784126 0)
(0.03009036931 -0.0005595590515 0)
(0.03009487388 -0.0006341745861 0)
(0.03010006582 -0.0007126403491 0)
(0.03010601461 -0.0007955190281 0)
(0.03011280032 -0.0008834276921 0)
(0.03012051443 -0.0009770451414 0)
(0.03012926054 -0.001077119519 0)
(0.03013915524 -0.001184476131 0)
(0.03015032897 -0.001300025421 0)
(0.03016292729 -0.001424771126 0)
(0.03017711246 -0.001559818644 0)
(0.03019306578 -0.001706383783 0)
(0.030210991 -0.001865802204 0)
(0.0302311194 -0.002039540038 0)
(0.03025371714 -0.002229206384 0)
(0.03027909586 -0.002436568656 0)
(0.03030762776 -0.00266357204 0)
(0.03033976674 -0.002912364552 0)
(0.03037607763 -0.003185329308 0)
(0.03041727625 -0.003485125436 0)
(0.03046428372 -0.00381473819 0)
(0.03051830016 -0.004177536422 0)
(0.0305809048 -0.004577330428 0)
(0.03065419457 -0.005018412969 0)
(0.03074097874 -0.005505542912 0)
(0.0308450653 -0.006043772545 0)
(0.03097172773 -0.006637926815 0)
(0.03112845224 -0.007291584344 0)
(0.03132534393 -0.008005144533 0)
(0.03157504874 -0.008772722294 0)
(0.03189158865 -0.009571300038 0)
(0.03223087987 -0.01030564291 0)
(0.03232028593 -0.01086349646 0)
(0.03196267534 -0.01079149035 0)
(0.03022319855 -0.009617441429 0)
(0.02518442258 -0.006970184581 0)
(0.01339575095 -0.001669897608 0)
(0.009608954529 0.0007487919594 0)
(0.02126152549 0.004658789144 0)
(0.02773778963 0.007672402397 0)
(0.03085596058 0.009746515306 0)
(0.03217103331 0.01071644785 0)
(0.03253549876 0.01091977385 0)
(0.03250454047 0.01063620574 0)
(0.03228815915 0.01014166236 0)
(0.0320545201 0.009525972625 0)
(0.03183501452 0.008870027185 0)
(0.03163756067 0.008214854172 0)
(0.03146340783 0.007581913396 0)
(0.03131071675 0.0069820998 0)
(0.03117702799 0.006420184135 0)
(0.0310597359 0.005897374706 0)
(0.03095641811 0.005413040858 0)
(0.03086498827 0.004965619184 0)
(0.03078371769 0.004553088563 0)
(0.03071119963 0.004173229253 0)
(0.03064629617 0.003823764893 0)
(0.03058808428 0.003502439575 0)
(0.03053580778 0.003207059694 0)
(0.03048883773 0.002935516937 0)
(0.03044664131 0.002685801169 0)
(0.03040875838 0.002456007711 0)
(0.03037478429 0.002244341355 0)
(0.03034435777 0.002049118248 0)
(0.03031715261 0.001868766088 0)
(0.03029287207 0.001701822881 0)
(0.03027124537 0.001546934394 0)
(0.03025202539 0.001402850378 0)
(0.03023498717 0.001268419715 0)
(0.0302199269 0.001142584643 0)
(0.03020666105 0.00102437428 0)
(0.03019502558 0.0009128976461 0)
(0.03018487505 0.0008073363796 0)
(0.03017608169 0.0007069373469 0)
(0.0301685344 0.0006110053011 0)
(0.03016213761 0.0005188957246 0)
(0.03015681023 0.000430007933 0)
(0.03015248452 0.0003437784367 0)
(0.03014910496 0.0002596743257 0)
(0.03014662737 0.0001771867857 0)
(0.03014501925 9.58270454e-05 0)
(0.03014425925 1.512695935e-05 0)
(0.03014433483 -6.536553693e-05 0)
(0.03014524294 -0.0001461244002 0)
(0.03014698275 -0.0002276243987 0)
(0.0301495815 -0.0003103203248 0)
(0.03015306413 -0.0003946841775 0)
(0.03015746833 -0.0004812125051 0)
(0.03016284508 -0.0005704244562 0)
(0.0301692583 -0.0006628668452 0)
(0.03017678605 -0.0007591215305 0)
(0.03018552162 -0.0008598126736 0)
(0.03019557466 -0.0009656141033 0)
(0.03020707224 -0.001077256931 0)
(0.03022015993 -0.001195537351 0)
(0.03023500271 -0.001321324486 0)
(0.0302517858 -0.00145556812 0)
(0.03027071549 -0.001599306112 0)
(0.03029201994 -0.001753671295 0)
(0.03031595021 -0.001919897656 0)
(0.03034278173 -0.00209932559 0)
(0.03037281656 -0.002293406067 0)
(0.03040638699 -0.002503703579 0)
(0.03044386107 -0.002731897761 0)
(0.03048565098 -0.002979783568 0)
(0.03053222519 -0.003249269779 0)
(0.03058412559 -0.003542375349 0)
(0.03064199099 -0.003861222465 0)
(0.03070658803 -0.004208023987 0)
(0.03077885064 -0.00458506071 0)
(0.03085992744 -0.0049946397 0)
(0.03095123483 -0.00543901728 0)
(0.03105450856 -0.005920256884 0)
(0.03117183725 -0.006439969512 0)
(0.03130563737 -0.006998836823 0)
(0.03145849834 -0.007595692908 0)
(0.03163287742 -0.008225776857 0)
(0.03183071669 -0.008878210411 0)
(0.03205095664 -0.009531625738 0)
(0.03228594974 -0.01014526483 0)
(0.03250310652 -0.0106386383 0)
(0.03253408941 -0.01092122952 0)
(0.03217018557 -0.01071676346 0)
(0.03085569354 -0.009746464202 0)
(0.02773819885 -0.007672178882 0)
(0.02126218497 -0.004658606457 0)
(0.00960938885 -0.0007487532884 0)
(0.007400527729 0.0004151953127 0)
(0.01805284029 0.003177722231 0)
(0.02501698891 0.005936825494 0)
(0.02908223649 0.008251123438 0)
(0.03124886366 0.009761569214 0)
(0.03231136607 0.01053979512 0)
(0.03267434367 0.01076396037 0)
(0.03269348911 0.01063196872 0)
(0.03260080629 0.01026529952 0)
(0.03244378249 0.009778189332 0)
(0.03226372933 0.009223497364 0)
(0.03208153224 0.008640783021 0)
(0.03190627254 0.008055338633 0)
(0.03174245594 0.007482890561 0)
(0.0315915489 0.006932477803 0)
(0.03145348329 0.006409173308 0)
(0.03132755078 0.005915564674 0)
(0.03121283089 0.00545262824 0)
(0.03110838384 0.005020293621 0)
(0.03101333123 0.004617813001 0)
(0.03092688122 0.004244003397 0)
(0.03084832756 0.003897408626 0)
(0.03077703851 0.003576410171 0)
(0.03071244322 0.003279304683 0)
(0.03065401953 0.003004359208 0)
(0.03060128433 0.002749851045 0)
(0.03055378684 0.002514096527 0)
(0.03051110438 0.002295471602 0)
(0.03047284014 0.002092426042 0)
(0.03043862229 0.001903492566 0)
(0.03040810399 0.001727291888 0)
(0.03038096372 0.001562534447 0)
(0.03035690575 0.001408019491 0)
(0.03033566036 0.001262632094 0)
(0.03031698386 0.001125338623 0)
(0.03030065823 0.0009951810726 0)
(0.03028649041 0.000871270671 0)
(0.03027431137 0.0007527810467 0)
(0.03026397489 0.0006389412234 0)
(0.03025535625 0.0005290286204 0)
(0.03024835089 0.0004223621656 0)
(0.0302428732 0.0003182954797 0)
(0.03023885575 0.0002162102659 0)
(0.03023624854 0.0001155111009 0)
(0.0302350159 1.562180814e-05 0)
(0.03023513263 -8.402283898e-05 0)
(0.03023659101 -0.0001839907356 0)
(0.03023940239 -0.000284851467 0)
(0.03024360159 -0.0003871731511 0)
(0.03024923085 -0.0004915357892 0)
(0.0302563486 -0.0005985417944 0)
(0.03026503282 -0.0007088193221 0)
(0.03027538184 -0.0008230282862 0)
(0.03028751539 -0.0009418677006 0)
(0.03030157599 -0.00106608314 0)
(0.03031773026 -0.001196474281 0)
(0.03033617017 -0.001333902467 0)
(0.03035711396 -0.001479298115 0)
(0.03038080686 -0.001633667684 0)
(0.03040752139 -0.001798099901 0)
(0.03043755736 -0.001973770845 0)
(0.03047124157 -0.002161947465 0)
(0.03050892732 -0.002363989001 0)
(0.03055099403 -0.002581345756 0)
(0.03059784728 -0.00281555454 0)
(0.03064991966 -0.00306823001 0)
(0.03070767297 -0.003341050937 0)
(0.03077160256 -0.003635740074 0)
(0.03084224396 -0.003954035784 0)
(0.03092018257 -0.0042976526 0)
(0.03100606577 -0.004668226358 0)
(0.03110061635 -0.005067236968 0)
(0.03120464336 -0.005495897825 0)
(0.03131904248 -0.005954994035 0)
(0.03144476983 -0.006444640276 0)
(0.0315827598 -0.006963911672 0)
(0.03173372933 -0.007510280801 0)
(0.03189774116 -0.008078745937 0)
(0.03207329146 -0.008660331534 0)
(0.03225583303 -0.009239300464 0)
(0.03243644585 -0.009790382974 0)
(0.03259442764 -0.01027420163 0)
(0.03268938574 -0.01063832419 0)
(0.03267131385 -0.01076837937 0)
(0.03230861689 -0.01054225406 0)
(0.03124738641 -0.009762987256 0)
(0.02908168177 -0.008251712661 0)
(0.02501724466 -0.005936960712 0)
(0.01805352143 -0.00317767778 0)
(0.007401037143 -0.0004151681282 0)
(0.006022208057 0.0002428112136 0)
(0.01557429343 0.002212277295 0)
(0.02250666409 0.004559319818 0)
(0.02708949826 0.006807993452 0)
(0.02992375477 0.008528639583 0)
(0.03156674165 0.00966652059 0)
(0.03242367808 0.01030418072 0)
(0.03279776626 0.01050698427 0)
(0.03290687326 0.01042033773 0)
(0.03287830205 0.01013580518 0)
(0.03277583392 0.009739425714 0)
(0.03263225882 0.009264577444 0)
(0.03246898411 0.008747133906 0)
(0.03230024624 0.008212660386 0)
(0.03213378559 0.007677526237 0)
(0.03197363202 0.007152665544 0)
(0.03182181143 0.006645285957 0)
(0.03167924961 0.006159925971 0)
(0.03154626014 0.005699230973 0)
(0.03142281674 0.005264509877 0)
(0.03130870455 0.004856126576 0)
(0.03120360293 0.004473778195 0)
(0.03110713016 0.004116696126 0)
(0.03101886795 0.003783793318 0)
(0.03093837562 0.003473773396 0)
(0.03086519932 0.003185212229 0)
(0.03079887917 0.002916619131 0)
(0.0307389555 0.002666482626 0)
(0.03068497483 0.002433304269 0)
(0.03063649539 0.002215623077 0)
(0.03059309231 0.002012032453 0)
(0.03055436207 0.001821191126 0)
(0.03051992614 0.001641829337 0)
(0.03048943384 0.001472751271 0)
(0.03046256413 0.001312834612 0)
(0.03043902667 0.001161027925 0)
(0.03041856203 0.001016346473 0)
(0.03040094125 0.0008778669613 0)
(0.03038596498 0.0007447216028 0)
(0.03037346222 0.0006160918067 0)
(0.03036328891 0.0004912017159 0)
(0.03035532647 0.0003693117074 0)
(0.03034948055 0.000249711982 0)
(0.03034567994 0.0001317166095 0)
(0.03034387467 1.465791899e-05 0)
(0.03034403425 -0.0001021205623 0)
(0.03034615026 -0.00021927184 0)
(0.03035023755 -0.0003374501017 0)
(0.03035633575 -0.0004573139794 0)
(0.03036450413 -0.0005795340414 0)
(0.03037482516 -0.0007048012607 0)
(0.03038740689 -0.0008338329815 0)
(0.03040238444 -0.0009673794958 0)
(0.03041992157 -0.001106231075 0)
(0.03044021224 -0.001251225037 0)
(0.03046348186 -0.00140325269 0)
(0.03048998831 -0.001563265939 0)
(0.03052002232 -0.001732283229 0)
(0.03055390722 -0.001911394418 0)
(0.03059199791 -0.00210176407 0)
(0.03063467894 -0.002304632564 0)
(0.0306823617 -0.002521314293 0)
(0.03073548062 -0.002753192102 0)
(0.03079448872 -0.003001706935 0)
(0.03085985245 -0.003268341482 0)
(0.03093204604 -0.003554596316 0)
(0.0310115456 -0.003861956596 0)
(0.03109882285 -0.004191846811 0)
(0.03119433792 -0.004545570049 0)
(0.03129853009 -0.004924226857 0)
(0.03141180348 -0.005328606447 0)
(0.03153450231 -0.005759039661 0)
(0.03166686575 -0.006215198067 0)
(0.03180894467 -0.006695815678 0)
(0.03196044943 -0.007198297157 0)
(0.03212047659 -0.007718160793 0)
(0.032287018 -0.008248266615 0)
(0.03245604114 -0.00877777236 0)
(0.03261973879 -0.00929039167 0)
(0.03276376551 -0.009760456258 0)
(0.0328670054 -0.01015222385 0)
(0.03289734765 -0.01043374863 0)
(0.03279077148 -0.01051716964 0)
(0.03241835077 -0.01031113609 0)
(0.03156247093 -0.009671018131 0)
(0.02992095138 -0.008531367985 0)
(0.02708808382 -0.006809384284 0)
(0.02250643798 -0.004559866598 0)
(0.01557479649 -0.002212387275 0)
(0.006022716948 -0.0002427936427 0)
(0.005073059524 0.0001454383702 0)
(0.01363834927 0.001584710272 0)
(0.02031548179 0.003522905419 0)
(0.02513040237 0.005565887218 0)
(0.02841299709 0.007308033082 0)
(0.03054236561 0.008621219165 0)
(0.03184482596 0.009501549819 0)
(0.03258684862 0.009990215807 0)
(0.03297646669 0.01016442037 0)
(0.03312631874 0.01009618454 0)
(0.03313588094 0.009862964425 0)
(0.03307372493 0.009525209355 0)
(0.03295762913 0.0091078606 0)
(0.03281183683 0.008644197281 0)
(0.03265139813 0.008155928208 0)
(0.0324855688 0.007658864422 0)
(0.0323201371 0.007164417385 0)
(0.03215874531 0.006680596723 0)
(0.03200367444 0.006212853581 0)
(0.03185632499 0.005764737989 0)
(0.03171751618 0.005338387218 0)
(0.03158767386 0.004934889577 0)
(0.03146695028 0.004554558399 0)
(0.03135530244 0.004197140012 0)
(0.03125254535 0.003861972677 0)
(0.0311583904 0.003548108654 0)
(0.03107247431 0.003254408092 0)
(0.0309943823 0.00297961117 0)
(0.03092366719 0.002722393115 0)
(0.03085986543 0.002481405602 0)
(0.03080251056 0.002255307261 0)
(0.03075114431 0.002042785449 0)
(0.03070532553 0.001842571018 0)
(0.03066463712 0.001653447549 0)
(0.03062869105 0.00147425623 0)
(0.03059713175 0.0013038974 0)
(0.03056963806 0.001141329584 0)
(0.03054592402 0.0009855667019 0)
(0.03052573872 0.0008356739994 0)
(0.03050886555 0.0006907631389 0)
(0.03049512102 0.0005499867666 0)
(0.03048435328 0.0004125327918 0)
(0.03047644082 0.0002776185496 0)
(0.03047129112 0.0001444850013 0)
(0.03046883946 1.239088891e-05 0)
(0.0304690481 -0.0001193936063 0)
(0.03047190684 -0.0002515931633 0)
(0.03047743358 -0.0003849328549 0)
(0.03048567549 -0.0005201431069 0)
(0.03049670806 -0.0006579659572 0)
(0.03051063692 -0.0007991622145 0)
(0.03052759965 -0.0009445177862 0)
(0.03054776762 -0.001094850012 0)
(0.03057134754 -0.001251014016 0)
(0.03059858293 -0.001413908844 0)
(0.03062975498 -0.001584483127 0)
(0.03066518276 -0.001763739939 0)
(0.03070522243 -0.001952740397 0)
(0.03075026529 -0.002152605433 0)
(0.03080073433 -0.002364515045 0)
(0.03085707912 -0.00258970419 0)
(0.03091976884 -0.002829454298 0)
(0.03098928325 -0.003085079215 0)
(0.0310661015 -0.003357904121 0)
(0.03115068868 -0.00364923568 0)
(0.03124347967 -0.003960321272 0)
(0.03134486008 -0.00429229458 0)
(0.031455143 -0.004646104033 0)
(0.03157453992 -0.005022419395 0)
(0.0317031223 -0.005421510183 0)
(0.031840768 -0.00584308707 0)
(0.03198708253 -0.006286094096 0)
(0.03214127872 -0.006748434725 0)
(0.03230198803 -0.007226607674 0)
(0.03246696024 -0.007715217217 0)
(0.0326325817 -0.008206314069 0)
(0.03279308597 -0.008688559358 0)
(0.03293921153 -0.009146250667 0)
(0.03305581338 -0.009557740954 0)
(0.03311866566 -0.009889284567 0)
(0.03311135761 -0.01011852202 0)
(0.0329640348 -0.0101828154 0)
(0.03257606274 -0.01000436787 0)
(0.03183609537 -0.009511475677 0)
(0.03053556469 -0.008627892788 0)
(0.02840827933 -0.007312199818 0)
(0.02512766129 -0.00556816825 0)
(0.02031443464 -0.003523911024 0)
(0.01363845718 -0.001584989991 0)
(0.005073486816 -0.0001454308497 0)
(0.004392290226 9.234567642e-05 0)
(0.01211576376 0.001172720982 0)
(0.01845023783 0.002757936927 0)
(0.0233164868 0.004550918942 0)
(0.02687727939 0.006205036718 0)
(0.02937630449 0.007566282964 0)
(0.03105830699 0.008582685527 0)
(0.03214184865 0.009258324813 0)
(0.03280611015 0.009635035774 0)
(0.03317979951 0.009768916134 0)
(0.03334825081 0.009704125073 0)
(0.03339129171 0.009500112209 0)
(0.03334987514 0.009196399549 0)
(0.03325227593 0.008821150413 0)
(0.03311920575 0.008399742972 0)
(0.03296512847 0.00795111462 0)
(0.03280001296 0.007489775044 0)
(0.0326307317 0.007026580702 0)
(0.03246203498 0.00656947551 0)
(0.03229720236 0.006124128389 0)
(0.03213847794 0.005694443433 0)
(0.03198736346 0.005282961484 0)
(0.03184481829 0.004891176388 0)
(0.03171139876 0.004519784303 0)
(0.03158735808 0.004168880342 0)
(0.03147272043 0.003838113766 0)
(0.03136733801 0.003526810375 0)
(0.03127093609 0.003234068701 0)
(0.03118314975 0.002958835153 0)
(0.03110355388 0.00269996215 0)
(0.03103168798 0.002456252417 0)
(0.03096707633 0.002226492077 0)
(0.03090924426 0.002009474669 0)
(0.03085773076 0.001804017899 0)
(0.03081209807 0.001608974601 0)
(0.03077193853 0.001423239188 0)
(0.03073687914 0.001245750612 0)
(0.03070658426 0.001075492715 0)
(0.0306807568 0.0009114926611 0)
(0.0306591384 0.0007528180064 0)
(0.03064150876 0.0005985728316 0)
(0.0306276846 0.0004478932649 0)
(0.03061751847 0.0002999426234 0)
(0.03061089752 0.0001539063336 0)
(0.0306077425 8.98664965e-06 0)
(0.03060800721 -0.0001356029213 0)
(0.03061167863 -0.0002806431406 0)
(0.03061877741 -0.0004269143091 0)
(0.03062935872 -0.000575201377 0)
(0.03064351271 -0.0007262995543 0)
(0.03066136591 -0.0008810203864 0)
(0.03068308291 -0.001040197484 0)
(0.03070886806 -0.001204692052 0)
(0.0307389668 -0.001375398124 0)
(0.03077366656 -0.001553247264 0)
(0.03081329679 -0.001739212381 0)
(0.03085822781 -0.001934310219 0)
(0.03090886819 -0.002139601948 0)
(0.0309656601 -0.002356191128 0)
(0.03102907243 -0.002585218185 0)
(0.03109959112 -0.002827850334 0)
(0.03117770638 -0.003085265685 0)
(0.03126389635 -0.003358630039 0)
(0.03135860682 -0.003649064577 0)
(0.03146222638 -0.003957602303 0)
(0.03157505626 -0.004285130631 0)
(0.03169727363 -0.004632316915 0)
(0.03182888636 -0.004999512876 0)
(0.03196967589 -0.005386632807 0)
(0.03211912289 -0.005792998896 0)
(0.03227630691 -0.00621714499 0)
(0.03243976651 -0.006656567601 0)
(0.03260729839 -0.007107409799 0)
(0.0327756632 -0.007564059427 0)
(0.03294014872 -0.00801863774 0)
(0.03309391652 -0.008460361948 0)
(0.03322702478 -0.008874817636 0)
(0.03332503531 -0.009243211697 0)
(0.03336732377 -0.009539941002 0)
(0.03332605623 -0.009738163614 0)
(0.03316010803 -0.009797870021 0)
(0.03278851452 -0.009657801548 0)
(0.03212652598 -0.009275832805 0)
(0.03104556055 -0.008595473409 0)
(0.02936627235 -0.007575111866 0)
(0.02687004493 -0.006210683356 0)
(0.02331192137 -0.004554125525 0)
(0.01844799913 -0.00275942499 0)
(0.01211524057 -0.001173178822 0)
(0.00439254927 -9.234831179e-05 0)
(0.003887697853 6.262865828e-05 0)
(0.01090746643 0.000894684438 0)
(0.0168805315 0.002191751718 0)
(0.021690861 0.003738312333 0)
(0.02540360052 0.005252180206 0)
(0.02816676793 0.006581361581 0)
(0.03015450486 0.007651279781 0)
(0.03153749841 0.008439250212 0)
(0.03246578997 0.008959146858 0)
(0.03305822026 0.009244251066 0)
(0.03340620984 0.009331985774 0)
(0.03358182268 0.009259909346 0)
(0.0336373474 0.009069093469 0)
(0.03360858591 0.008788838617 0)
(0.03352160191 0.008444724225 0)
(0.03339562689 0.008057259893 0)
(0.03324469929 0.007642837145 0)
(0.03307904239 0.007214313208 0)
(0.03290610892 0.006781577111 0)
(0.03273133137 0.006352082968 0)
(0.03255865403 0.005931315389 0)
(0.03239091123 0.005523181178 0)
(0.0322300987 0.005130334103 0)
(0.03207757145 0.00475444175 0)
(0.03193419096 0.004396403468 0)
(0.03180043767 0.004056527508 0)
(0.03167649888 0.003734674285 0)
(0.03156233911 0.003430371653 0)
(0.03145775726 0.003142906976 0)
(0.03136243345 0.002871399965 0)
(0.0312759675 0.002614859633 0)
(0.03119791035 0.002372228125 0)
(0.03112778928 0.002142413806 0)
(0.03106512789 0.001924315592 0)
(0.03100946146 0.001716840241 0)
(0.0309603483 0.001518914043 0)
(0.03091737783 0.001329490111 0)
(0.03088017589 0.001147552306 0)
(0.03084840787 0.0009721165991 0)
(0.03082178025 0.0008022305562 0)
(0.03080004097 0.0006369714634 0)
(0.03078297898 0.0004754434902 0)
(0.03077042349 0.0003167741964 0)
(0.03076224305 0.0001601105893 0)
(0.03075834478 4.614849433e-06 0)
(0.03075867397 -0.0001505402354 0)
(0.03076321418 -0.0003061758806 0)
(0.03077198767 -0.0004631118748 0)
(0.03078505631 -0.0006221711528 0)
(0.03080252235 -0.0007841845493 0)
(0.03082452978 -0.0009499957104 0)
(0.03085126584 -0.001120465749 0)
(0.03088296227 -0.001296477539 0)
(0.03091989616 -0.001478939439 0)
(0.03096238989 -0.001668788153 0)
(0.03101080982 -0.001866990269 0)
(0.03106556326 -0.002074541963 0)
(0.0311270932 -0.00229246616 0)
(0.03119587015 -0.00252180631 0)
(0.03127238077 -0.002763615748 0)
(0.03135711228 -0.003018941422 0)
(0.03145053243 -0.003288800522 0)
(0.03155306407 -0.003574148316 0)
(0.03166505357 -0.003875835192 0)
(0.03178673227 -0.004194550536 0)
(0.03191816953 -0.004530750675 0)
(0.0320592154 -0.004884567562 0)
(0.03220943018 -0.005255694209 0)
(0.03236799627 -0.00564324206 0)
(0.03253360545 -0.006045564476 0)
(0.03270431111 -0.006460039334 0)
(0.03287732978 -0.006882802654 0)
(0.03304876883 -0.007308424335 0)
(0.03321324713 -0.007729516939 0)
(0.03336336198 -0.008136270909 0)
(0.03348893763 -0.008515924905 0)
(0.03357598364 -0.008852211716 0)
(0.03360534299 -0.009124774494 0)
(0.03355114735 -0.009308053426 0)
(0.03337773519 -0.009373441324 0)
(0.03303199161 -0.00927827692 0)
(0.03244211037 -0.008986357881 0)
(0.03151675599 -0.00846033347 0)
(0.03013705566 -0.007666918902 0)
(0.02815282917 -0.006592337215 0)
(0.02539325125 -0.00525932218 0)
(0.02168396865 -0.003742457746 0)
(0.01687671984 -0.002193730618 0)
(0.01090606834 -0.000895322765 0)
(0.003887699965 -6.264109796e-05 0)
(0.003501005906 4.49092808e-05 0)
(0.009936760779 0.0007004623729 0)
(0.01556373603 0.001767057403 0)
(0.02026039763 0.003090635508 0)
(0.02403735822 0.00444672882 0)
(0.02697826858 0.005698283303 0)
(0.02920167967 0.006763981479 0)
(0.03083599464 0.00760527444 0)
(0.03200278432 0.008216356724 0)
(0.03280662072 0.008612234604 0)
(0.03333355438 0.0088178018 0)
(0.03365376882 0.008862411724 0)
(0.03382119597 0.008777447961 0)
(0.03387669008 0.008590810941 0)
(0.03385089739 0.008327053646 0)
(0.03376711212 0.008006892656 0)
(0.03364301917 0.00764752892 0)
(0.03349202317 0.007262977231 0)
(0.03332427782 0.006864442903 0)
(0.03314746428 0.006460719475 0)
(0.03296737214 0.006058570417 0)
(0.03278833263 0.005663075202 0)
(0.03261354324 0.00527793333 0)
(0.03244531395 0.004905726044 0)
(0.03228525681 0.004548138352 0)
(0.0321344346 0.004206145349 0)
(0.03199347964 0.003880167126 0)
(0.03186269013 0.003570196433 0)
(0.03174210919 0.003275902926 0)
(0.03163159 0.002996717457 0)
(0.03153084958 0.002731899417 0)
(0.03143951287 0.002480589847 0)
(0.03135714838 0.002241852651 0)
(0.03128329672 0.002014705995 0)
(0.03121749273 0.00179814567 0)
(0.03115928242 0.001591161971 0)
(0.0311082352 0.001392751409 0)
(0.03106395258 0.001201924381 0)
(0.03102607378 0.001017709702 0)
(0.03099427911 0.0008391567837 0)
(0.03096829168 0.0006653360374 0)
(0.03094787795 0.0004953379908 0)
(0.03093284764 0.0003282714729 0)
(0.03092305329 0.0001632611357 0)
(0.03091838986 -5.55496123e-07 0)
(0.03091879449 -0.0001640313459 0)
(0.03092424674 -0.000328013243 0)
(0.03093476904 -0.0004933454621 0)
(0.03095042758 -0.0006608733217 0)
(0.03097133325 -0.0008314468076 0)
(0.03099764283 -0.00100592416 0)
(0.03102956014 -0.001185175146 0)
(0.03106733676 -0.001370083794 0)
(0.03111127196 -0.001561550324 0)
(0.03116171141 -0.001760491871 0)
(0.03121904402 -0.001967841502 0)
(0.03128369645 -0.002184544908 0)
(0.03135612453 -0.00241155398 0)
(0.03143680085 -0.002649816319 0)
(0.03152619779 -0.00290025955 0)
(0.03162476515 -0.003163769108 0)
(0.03173290148 -0.003441157927 0)
(0.03185091817 -0.003733126251 0)
(0.03197899517 -0.004040209499 0)