/*--------------------------------*- C++ -*----------------------------------*\
  =========                 |
  \\      /  F ield         | OpenFOAM: The Open Source CFD Toolbox
   \\    /   O peration     | Website:  https://openfoam.org
    \\  /    A nd           | Version:  7
     \\/     M anipulation  |
\*---------------------------------------------------------------------------*/
FoamFile
{
    version     2.0;
    format      ascii;
    class       volVectorField;
    location    "0";
    object      U;
}
// * * * * * * * * * * * * * * * * * * * * * * * * * * * * * * * * * * * * * //

dimensions      [0 1 -1 0 0 0 0];

internalField nonuniform List<vector> 54806((0.0003128906021 1.926078983e-05 0.0) (0.0002975809188 4.932834529e-05 0.0) (0.0002209501263 2.667437804e-05 0.0) (0.0001590355428 1.222986122e-05 0.0) (0.0001223171172 6.819537049e-06 0.0) (9.927123997e-05 4.036500966e-06 0.0) (8.329322908e-05 2.459562094e-06 0.0) (7.166451345e-05 1.592619821e-06 0.0) (6.286304064e-05 1.105862896e-06 0.0) (5.593538998e-05 8.163980178e-07 0.0) (5.02950355e-05 6.338889036e-07 0.0) (4.557560746e-05 5.124841978e-07 0.0) (4.153856221e-05 4.276411549e-07 0.0) (3.802228459e-05 3.657329334e-07 0.0) (3.491358523e-05 3.189041558e-07 0.0) (3.213090633e-05 2.824147095e-07 0.0) (2.961405759e-05 2.532653925e-07 0.0) (2.731774031e-05 2.294741025e-07 0.0) (2.520732054e-05 2.096811943e-07 0.0) (2.325597651e-05 1.929257552e-07 0.0) (2.1442711e-05 1.785141969e-07 0.0) (1.97509163e-05 1.659477288e-07 0.0) (1.816732229e-05 1.549074881e-07 0.0) (1.668137876e-05 1.452589129e-07 0.0) (1.528484406e-05 1.369521156e-07 0.0) (1.396794755e-05 1.320511276e-07 0.0) (1.271672392e-05 1.523750755e-07 0.0) (1.15392385e-05 1.860121407e-07 0.0) (1.043088986e-05 2.462350259e-07 0.0) (9.417754612e-06 3.279777548e-07 0.0) (8.509555088e-06 3.136903192e-07 0.0) (7.619487902e-06 1.9955212e-07 0.0) (6.756159891e-06 1.174585077e-07 0.0) (5.954977104e-06 8.13510821e-08 0.0) (5.212636097e-06 6.328499574e-08 0.0) (4.528437396e-06 5.760081007e-08 0.0) (3.896758996e-06 5.295156967e-08 0.0) (3.315009838e-06 4.859158249e-08 0.0) (2.781678148e-06 4.452054776e-08 0.0) (2.295022009e-06 4.064595564e-08 0.0) (1.853230426e-06 3.695253016e-08 0.0) (1.45446446e-06 3.350330646e-08 0.0) (1.096963957e-06 3.043237619e-08 0.0) (7.791410721e-07 2.76808749e-08 0.0) (4.970516905e-07 2.724788371e-08 0.0) (2.457197623e-07 4.907800415e-08 0.0) (3.065738845e-08 4.42101105e-08 0.0) (-1.496319733e-07 2.00007331e-08 0.0) (-3.013927873e-07 1.330872814e-08 0.0) (-4.256920733e-07 3.304170695e-09 0.0) (-5.247597686e-07 5.788748508e-10 0.0) (-6.012804368e-07 1.365417324e-09 0.0) (-6.567804717e-07 2.044221157e-11 0.0) (-6.932350892e-07 -1.500077139e-09 0.0) (-7.125926287e-07 -2.985722271e-09 0.0) (-7.164996311e-07 -4.328773156e-09 0.0) (-7.072457861e-07 -5.588821127e-09 0.0) (-6.861823088e-07 -6.639645182e-09 0.0) (-6.543539365e-07 -7.537833863e-09 0.0) (-6.138268802e-07 -8.187121907e-09 0.0) (-5.662622166e-07 -8.679322164e-09 0.0) (-5.130502597e-07 -9.052617765e-09 0.0) (-4.555251662e-07 -9.296509888e-09 0.0) (-3.950541423e-07 -9.409221025e-09 0.0) (-3.330597084e-07 -9.394647856e-09 0.0) (-2.709846362e-07 -9.226018654e-09 0.0) (-2.094627174e-07 -9.280418884e-09 0.0) (-1.486758849e-07 -1.337602523e-08 0.0) (-9.82631552e-08 -1.450149252e-08 0.0) (-4.805274709e-08 -8.284143011e-09 0.0) (-3.384626642e-09 -7.420145863e-09 0.0) (3.333083168e-08 -6.161704267e-09 0.0) (6.355334239e-08 -4.500595294e-09 0.0) (9.08135486e-08 -5.730238037e-09 0.0) (1.160147379e-07 -1.435438422e-08 0.0) (1.464290634e-09 -5.683486634e-11 0.0) (1.124902739e-07 1.47108907e-09 0.0) (1.093850511e-07 1.678077871e-09 0.0) (1.062801689e-07 1.406268705e-09 0.0) (1.037926788e-07 1.081231523e-09 0.0) (1.018948125e-07 8.162611926e-10 0.0) (1.004582056e-07 6.200045766e-10 0.0) (9.936072646e-08 4.77234402e-10 0.0) (9.85113278e-08 3.720092749e-10 0.0) (9.78467983e-08 2.924211544e-10 0.0) (9.732393418e-08 2.303758674e-10 0.0) (9.691300058e-08 1.80506231e-10 0.0) (9.659320851e-08 1.392393942e-10 0.0) (9.634977069e-08 1.041502793e-10 0.0) (9.617201546e-08 7.355074336e-11 0.0) (9.605216693e-08 4.625558779e-11 0.0) (9.598455063e-08 2.135849416e-11 0.0) (9.596507178e-08 -1.857919671e-12 0.0) (9.599084827e-08 -2.390702091e-11 0.0) (9.605994503e-08 -4.517472676e-11 0.0) (9.617120026e-08 -6.603905229e-11 0.0) (9.632410608e-08 -8.682151682e-11 0.0) (9.65187038e-08 -1.077490215e-10 0.0) (9.675551183e-08 -1.290490252e-10 0.0) (9.703548044e-08 -1.509262503e-10 0.0) (9.735995552e-08 -1.735718623e-10 0.0) (9.77306542e-08 -1.971661037e-10 0.0) (9.814964944e-08 -2.218847968e-10 0.0) (9.861936203e-08 -2.479000623e-10 0.0) (9.914255821e-08 -2.753854307e-10 0.0) (9.97223521e-08 -3.045153683e-10 0.0) (1.003622117e-07 -3.354694306e-10 0.0) (1.010659676e-07 -3.684308474e-10 0.0) (1.018378239e-07 -4.035898476e-10 0.0) (1.026823694e-07 -4.411413221e-10 0.0) (1.036045898e-07 -4.812872611e-10 0.0) (1.046098784e-07 -5.24233352e-10 0.0) (1.057040446e-07 -5.70190322e-10 0.0) (1.068933194e-07 -6.193691834e-10 0.0) (1.081843559e-07 -6.719811373e-10 0.0) (1.095842229e-07 -7.282310379e-10 0.0) (1.111003905e-07 -7.883153812e-10 0.0) (1.127407043e-07 -8.524134306e-10 0.0) (1.145133462e-07 -9.206826942e-10 0.0) (1.164267795e-07 -9.932470605e-10 0.0) (1.184896736e-07 -1.070189121e-09 0.0) (1.207108058e-07 -1.15153465e-09 0.0) (1.230989366e-07 -1.237241203e-09 0.0) (1.256626534e-07 -1.327178471e-09 0.0) (1.284101791e-07 -1.421112912e-09 0.0) (1.313491427e-07 -1.518684035e-09 0.0) (1.344863057e-07 -1.619385621e-09 0.0) (1.378272446e-07 -1.722539102e-09 0.0) (1.413759863e-07 -1.827273442e-09 0.0) (1.451345966e-07 -1.93249892e-09 0.0) (1.491027263e-07 -2.036890403e-09 0.0) (1.532771212e-07 -2.138867976e-09 0.0) (1.576511081e-07 -2.236592447e-09 0.0) (1.62214075e-07 -2.327963529e-09 0.0) (1.66950969e-07 -2.41063986e-09 0.0) (1.71841843e-07 -2.48206746e-09 0.0) (1.768614863e-07 -2.539535259e-09 0.0) (1.819791768e-07 -2.580240566e-09 0.0) (1.871585891e-07 -2.601380471e-09 0.0) (1.923578913e-07 -2.600248279e-09 0.0) (1.975300564e-07 -2.574352053e-09 0.0) (2.026234151e-07 -2.521537636e-09 0.0) (2.075824847e-07 -2.440141264e-09 0.0) (2.123491173e-07 -2.329157016e-09 0.0) (2.168640175e-07 -2.188438131e-09 0.0) (2.210686554e-07 -2.018892363e-09 0.0) (2.249075414e-07 -1.822647751e-09 0.0) (2.283307011e-07 -1.603088153e-09 0.0) (2.312960093e-07 -1.364678677e-09 0.0) (2.337708772e-07 -1.112491789e-09 0.0) (2.357327915e-07 -8.515344247e-10 0.0) (2.371684503e-07 -5.85703446e-10 0.0) (2.380720083e-07 -3.185744671e-10 0.0) (2.384431093e-07 -5.270204526e-11 0.0) (2.3828518e-07 2.10684017e-10 0.0) (2.376048265e-07 4.701344694e-10 0.0) (2.364126742e-07 7.231923926e-10 0.0) (2.347252824e-07 9.659884645e-10 0.0) (2.325674127e-07 1.193937058e-09 0.0) (2.299739315e-07 1.401705872e-09 0.0) (2.269907458e-07 1.583702679e-09 0.0) (2.236743136e-07 1.734965271e-09 0.0) (2.200898497e-07 1.851699682e-09 0.0) (2.163087222e-07 1.931549271e-09 0.0) (2.124055387e-07 1.973635874e-09 0.0) (2.0845529e-07 1.978460641e-09 0.0) (2.045307847e-07 1.947711529e-09 0.0) (2.007005211e-07 1.884018444e-09 0.0) (1.970270818e-07 1.790674119e-09 0.0) (1.935660818e-07 1.671358152e-09 0.0) (1.903656475e-07 1.529884219e-09 0.0) (1.874663478e-07 1.369998947e-09 0.0) (1.849014764e-07 1.19523311e-09 0.0) (1.826975741e-07 1.008810465e-09 0.0) (1.808750914e-07 8.135980347e-10 0.0) (1.794491148e-07 6.120936959e-10 0.0) (1.784300975e-07 4.064327783e-10 0.0) (1.778245557e-07 1.984385957e-10 0.0) (1.776355979e-07 -9.832256561e-12 0.0) (1.778635422e-07 -2.176923632e-10 0.0) (1.7850653e-07 -4.246025258e-10 0.0) (1.795607137e-07 -6.29089619e-10 0.0) (1.810204719e-07 -8.303756629e-10 0.0) (1.828786801e-07 -1.02773796e-09 0.0) (1.851267929e-07 -1.220477226e-09 0.0) (1.877548544e-07 -1.407882067e-09 0.0) (1.907514448e-07 -1.589199462e-09 0.0) (1.941035695e-07 -1.76360768e-09 0.0) (1.977965026e-07 -1.930196596e-09 0.0) (2.018135924e-07 -2.087950088e-09 0.0) (2.061360362e-07 -2.235734182e-09 0.0) (2.107426354e-07 -2.372285281e-09 0.0) (2.156095263e-07 -2.496201993e-09 0.0) (2.207098961e-07 -2.60593618e-09 0.0) (2.260136865e-07 -2.699789475e-09 0.0) (2.314872938e-07 -2.775914454e-09 0.0) (2.370932889e-07 -2.832331497e-09 0.0) (2.427901883e-07 -2.866964876e-09 0.0) (2.485323324e-07 -2.877711588e-09 0.0) (2.542699318e-07 -2.862543963e-09 0.0) (2.599493606e-07 -2.81964893e-09 0.0) (2.65513741e-07 -2.74758441e-09 0.0) (2.709038372e-07 -2.645431193e-09 0.0) (2.760592167e-07 -2.512908074e-09 0.0) (2.809196018e-07 -2.350447219e-09 0.0) (2.854263558e-07 -2.159253642e-09 0.0) (2.895241128e-07 -1.941390365e-09 0.0) (2.931625874e-07 -1.699873029e-09 0.0) (2.962984506e-07 -1.438642988e-09 0.0) (2.988968736e-07 -1.162260503e-09 0.0) (3.00932135e-07 -8.751558432e-10 0.0) (3.023869619e-07 -5.811171101e-10 0.0) (3.032509282e-07 -2.834528526e-10 0.0) (3.03518428e-07 1.584537918e-11 0.0) (3.031869097e-07 3.158293489e-10 0.0) (3.022561666e-07 6.156048868e-10 0.0) (3.007290223e-07 9.131163974e-10 0.0) (2.986130826e-07 1.205083049e-09 0.0) (2.959227213e-07 1.487838334e-09 0.0) (2.92680693e-07 1.75693526e-09 0.0) (2.889188209e-07 2.007831678e-09 0.0) (2.846774173e-07 2.236578917e-09 0.0) (2.80003796e-07 2.440124803e-09 0.0) (2.749504628e-07 2.616331403e-09 0.0) (2.695733783e-07 2.763883945e-09 0.0) (2.639303933e-07 2.882209983e-09 0.0) (2.580798073e-07 2.971438076e-09 0.0) (2.520790166e-07 3.032344668e-09 0.0) (2.459833038e-07 3.066271764e-09 0.0) (2.398448236e-07 3.075008517e-09 0.0) (2.337118307e-07 3.060669494e-09 0.0) (2.276281439e-07 3.025579123e-09 0.0) (2.216328166e-07 2.972181165e-09 0.0) (2.157599751e-07 2.902961353e-09 0.0) (2.100387935e-07 2.820387854e-09 0.0) (2.044935867e-07 2.726855234e-09 0.0) (1.991439978e-07 2.624640425e-09 0.0) (1.940052764e-07 2.515861769e-09 0.0) (1.890886216e-07 2.402452392e-09 0.0) (1.844015732e-07 2.286138982e-09 0.0) (1.799484308e-07 2.168435528e-09 0.0) (1.757306812e-07 2.050640945e-09 0.0) (1.717474193e-07 1.933848509e-09 0.0) (1.679957488e-07 1.818955164e-09 0.0) (1.644711597e-07 1.706678963e-09 0.0) (1.611678699e-07 1.597572706e-09 0.0) (1.580791375e-07 1.492043194e-09 0.0) (1.551975391e-07 1.390364959e-09 0.0) (1.525152162e-07 1.292698284e-09 0.0) (1.500240916e-07 1.199101007e-09 0.0) (1.477160587e-07 1.109544402e-09 0.0) (1.455831449e-07 1.023922595e-09 0.0) (1.436176524e-07 9.420662545e-10 0.0) (1.418122783e-07 8.637498046e-10 0.0) (1.401602145e-07 7.887031737e-10 0.0) (1.386552318e-07 7.166170825e-10 0.0) (1.372917482e-07 6.471532939e-10 0.0) (1.36064883e-07 5.799482811e-10 0.0) (1.349704984e-07 5.146223111e-10 0.0) (1.340052293e-07 4.507818431e-10 0.0) (1.331665031e-07 3.880277918e-10 0.0) (1.324525489e-07 3.259569269e-10 0.0) (1.318623984e-07 2.641696573e-10 0.0) (1.313958779e-07 2.02270556e-10 0.0) (1.310535932e-07 1.398753772e-10 0.0) (1.308369085e-07 7.660922614e-11 0.0) (1.307478885e-07 1.227528349e-11 0.0) (1.307892665e-07 -5.356694362e-11 0.0) (1.309644485e-07 -1.214005993e-10 0.0) (1.312774212e-07 -1.913821386e-10 0.0) (1.317326587e-07 -2.637187562e-10 0.0) (1.323350722e-07 -3.386129428e-10 0.0) (1.330899309e-07 -4.162201703e-10 0.0) (1.340027681e-07 -4.966494784e-10 0.0) (1.350792795e-07 -5.799546496e-10 0.0) (1.363252127e-07 -6.661340455e-10 0.0) (1.377462472e-07 -7.551214513e-10 0.0) (1.393478656e-07 -8.467863056e-10 0.0) (1.411352158e-07 -9.409248638e-10 0.0) (1.431129665e-07 -1.037261342e-09 0.0) (1.452851536e-07 -1.135439804e-09 0.0) (1.476550243e-07 -1.235026553e-09 0.0) (1.502248734e-07 -1.335502992e-09 0.0) (1.529958768e-07 -1.436269123e-09 0.0) (1.559679227e-07 -1.536636939e-09 0.0) (1.591394398e-07 -1.635834555e-09 0.0) (1.625072221e-07 -1.732999168e-09 0.0) (1.66066251e-07 -1.827180595e-09 0.0) (1.698095122e-07 -1.917332347e-09 0.0) (1.737278024e-07 -2.002312742e-09 0.0) (1.778095287e-07 -2.080872226e-09 0.0) (1.820404889e-07 -2.151650744e-09 0.0) (1.864036353e-07 -2.213162249e-09 0.0) (1.908788226e-07 -2.263794647e-09 0.0) (1.954425538e-07 -2.301806997e-09 0.0) (2.000677522e-07 -2.325359647e-09 0.0) (2.047236129e-07 -2.332562155e-09 0.0) (2.093756021e-07 -2.321574655e-09 0.0) (2.139856822e-07 -2.290733043e-09 0.0) (2.185128326e-07 -2.238712756e-09 0.0) (2.229138757e-07 -2.164677125e-09 0.0) (2.271445859e-07 -2.068408114e-09 0.0) (2.311610042e-07 -1.9503876e-09 0.0) (2.349209028e-07 -1.81186427e-09 0.0) (2.383853856e-07 -1.654920705e-09 0.0) (2.415206195e-07 -1.482537512e-09 0.0) (2.442995684e-07 -1.298530595e-09 0.0) (2.467033475e-07 -1.107234801e-09 0.0) (2.487216684e-07 -9.129156382e-10 0.0) (2.503520286e-07 -7.190960206e-10 0.0) (2.515976643e-07 -5.278407752e-10 0.0) (2.524648264e-07 -3.400561734e-10 0.0) (2.529600039e-07 -1.554049711e-10 0.0) (2.530874933e-07 2.786379453e-11 0.0) (2.528478236e-07 2.119323608e-10 0.0) (2.522373066e-07 3.990099192e-10 0.0) (2.512487427e-07 5.905008297e-10 0.0) (2.498732763e-07 7.86418088e-10 0.0) (2.481030611e-07 9.855378097e-10 0.0) (2.45934321e-07 1.185121749e-09 0.0) (2.433703042e-07 1.380974605e-09 0.0) (2.404233557e-07 1.56818758e-09 0.0) (2.371155315e-07 1.741953801e-09 0.0) (2.334776495e-07 1.898317425e-09 0.0) (2.295471652e-07 2.034596659e-09 0.0) (2.25365577e-07 2.149434977e-09 0.0) (2.209759972e-07 2.242577722e-09 0.0) (2.164212778e-07 2.314544906e-09 0.0) (2.117427769e-07 2.366315674e-09 0.0) (2.06979663e-07 2.399102818e-09 0.0) (2.02168582e-07 2.414218453e-09 0.0) (1.973435169e-07 2.413013553e-09 0.0) (1.925357341e-07 2.396855206e-09 0.0) (1.877737573e-07 2.367119601e-09 0.0) (1.830833595e-07 2.325184568e-09 0.0) (1.784875682e-07 2.272417734e-09 0.0) (1.74006704e-07 2.210159803e-09 0.0) (1.696584528e-07 2.139705895e-09 0.0) (1.654579745e-07 2.06228749e-09 0.0) (1.614180458e-07 1.979056858e-09 0.0) (1.575492306e-07 1.891075178e-09 0.0) (1.538600699e-07 1.799304251e-09 0.0) (1.503572852e-07 1.704602177e-09 0.0) (1.470459876e-07 1.607722024e-09 0.0) (1.439298846e-07 1.509313674e-09 0.0) (1.410114837e-07 1.409927544e-09 0.0) (1.38292285e-07 1.310020577e-09 0.0) (1.357729616e-07 1.20996281e-09 0.0) (1.334535253e-07 1.110045356e-09 0.0) (1.31333477e-07 1.010487931e-09 0.0) (1.294119409e-07 9.114471837e-10 0.0) (1.276877836e-07 8.130238868e-10 0.0) (1.261597185e-07 7.152707113e-10 0.0) (1.248263947e-07 6.181984312e-10 0.0) (1.236864751e-07 5.217827573e-10 0.0) (1.227387007e-07 4.259694454e-10 0.0) (1.219819454e-07 3.306799242e-10 0.0) (1.214152698e-07 2.358154411e-10 0.0) (1.210378868e-07 1.413002507e-10 0.0) (1.208021982e-07 4.711806591e-11 0.0) (0.0004940590083 0.0001337896086 0.0) (0.0004786868419 0.0001601200957 0.0) (0.0004175415947 0.000115948249 0.0) (0.0003514097721 7.741363721e-05 0.0) (0.000297432811 5.296247806e-05 0.0) (0.0002555609976 3.715636759e-05 0.0) (0.0002225641461 2.694644158e-05 0.0) (0.0001962314377 2.029059666e-05 0.0) (0.0001749027684 1.58411165e-05 0.0) (0.0001573088109 1.276990375e-05 0.0) (0.0001425212017 1.057965103e-05 0.0) (0.0001298737503 8.968597377e-06 0.0) (0.0001188860222 7.74979898e-06 0.0) (0.0001092072344 6.804488311e-06 0.0) (0.0001005777657 6.055023386e-06 0.0) (9.28028242e-05 5.449115893e-06 0.0) (8.573433953e-05 4.950534514e-06 0.0) (7.925841412e-05 4.533517902e-06 0.0) (7.328651757e-05 4.179333243e-06 0.0) (6.77492123e-05 3.874099213e-06 0.0) (6.259160842e-05 3.607372253e-06 0.0) (5.777001738e-05 3.37120875e-06 0.0) (5.324946655e-05 3.159534915e-06 0.0) (4.900191561e-05 2.967670795e-06 0.0) (4.500502749e-05 2.79169207e-06 0.0) (4.124081974e-05 2.627641426e-06 0.0) (3.769228661e-05 2.473563882e-06 0.0) (3.434847281e-05 2.324217492e-06 0.0) (3.119760975e-05 2.180548363e-06 0.0) (2.823250476e-05 2.048020251e-06 0.0) (2.545079793e-05 1.921711069e-06 0.0) (2.283529089e-05 1.800155362e-06 0.0) (2.038509486e-05 1.687482286e-06 0.0) (1.80973927e-05 1.577405961e-06 0.0) (1.596453191e-05 1.467316027e-06 0.0) (1.398185462e-05 1.359523161e-06 0.0) (1.214437041e-05 1.254641399e-06 0.0) (1.044803374e-05 1.153302366e-06 0.0) (8.888499255e-06 1.055597374e-06 0.0) (7.461102547e-06 9.615285873e-07 0.0) (6.160974059e-06 8.711596487e-07 0.0) (4.983071331e-06 7.846219931e-07 0.0) (3.922171078e-06 7.021062004e-07 0.0) (2.97280443e-06 6.236702222e-07 0.0) (2.129267681e-06 5.489649275e-07 0.0) (1.386468077e-06 4.785888415e-07 0.0) (7.405991368e-07 4.054010665e-07 0.0) (1.836618013e-07 3.424510068e-07 0.0) (-2.895883726e-07 2.888543133e-07 0.0) (-6.845165515e-07 2.363482025e-07 0.0) (-1.006948744e-06 1.878127426e-07 0.0) (-1.263090457e-06 1.417357313e-07 0.0) (-1.458219631e-06 9.916490964e-08 0.0) (-1.597647787e-06 6.235303125e-08 0.0) (-1.687850475e-06 2.90293747e-08 0.0) (-1.733043933e-06 -8.321569427e-10 0.0) (-1.737942053e-06 -2.690893373e-08 0.0) (-1.707618579e-06 -5.018779142e-08 0.0) (-1.646373418e-06 -7.023248473e-08 0.0) (-1.559259297e-06 -8.652835687e-08 0.0) (-1.450995674e-06 -9.971668185e-08 0.0) (-1.325539524e-06 -1.101093002e-07 0.0) (-1.186760406e-06 -1.17698401e-07 0.0) (-1.038602269e-06 -1.224553977e-07 0.0) (-8.850283986e-07 -1.243714011e-07 0.0) (-7.299933366e-07 -1.234035244e-07 0.0) (-5.772674138e-07 -1.194885802e-07 0.0) (-4.300797049e-07 -1.132785219e-07 0.0) (-2.932054674e-07 -1.047135665e-07 0.0) (-1.684946364e-07 -9.369744914e-08 0.0) (-5.987967014e-08 -8.097278711e-08 0.0) (3.039950273e-08 -6.693668123e-08 0.0) (1.010938465e-07 -5.071271038e-08 0.0) (1.531887632e-07 -3.120329082e-08 0.0) (1.725648905e-07 -1.224819253e-08 0.0) (9.506532961e-10 -1.052793096e-11 0.0) (1.144913511e-07 5.818691079e-09 0.0) (1.094924367e-07 5.5093485e-09 0.0) (1.05853566e-07 4.274941791e-09 0.0) (1.033671572e-07 3.187570697e-09 0.0) (1.015942401e-07 2.382905509e-09 0.0) (1.002774504e-07 1.808560636e-09 0.0) (9.926931486e-08 1.395621425e-09 0.0) (9.848182514e-08 1.091467753e-09 0.0) (9.785948041e-08 8.605367515e-10 0.0) (9.736554644e-08 6.795859107e-10 0.0) (9.697476692e-08 5.334218161e-10 0.0) (9.666926647e-08 4.119513439e-10 0.0) (9.643612223e-08 3.083025575e-10 0.0) (9.62658595e-08 2.176622646e-10 0.0) (9.615148929e-08 1.365555244e-10 0.0) (9.608786788e-08 6.240382921e-11 0.0) (9.607125301e-08 -6.762244349e-12 0.0) (9.60990016e-08 -7.249274265e-11 0.0) (9.616936156e-08 -1.360388427e-10 0.0) (9.628130816e-08 -1.984281107e-10 0.0) (9.643442135e-08 -2.605298234e-10 0.0) (9.662880749e-08 -3.231005215e-10 0.0) (9.68650386e-08 -3.86811295e-10 0.0) (9.714410272e-08 -4.522710601e-10 0.0) (9.746737233e-08 -5.200467502e-10 0.0) (9.783658256e-08 -5.906766527e-10 0.0) (9.825381777e-08 -6.646835772e-10 0.0) (9.872150482e-08 -7.425829339e-10 0.0) (9.924241196e-08 -8.248918285e-10 0.0) (9.981965221e-08 -9.121337522e-10 0.0) (1.004566902e-07 -1.00484479e-09 0.0) (1.011573521e-07 -1.103575636e-09 0.0) (1.019258367e-07 -1.208895265e-09 0.0) (1.027667285e-07 -1.321390319e-09 0.0) (1.036850102e-07 -1.441666047e-09 0.0) (1.046860748e-07 -1.570342642e-09 0.0) (1.057757357e-07 -1.708052813e-09 0.0) (1.069602332e-07 -1.85543422e-09 0.0) (1.082462371e-07 -2.013122622e-09 0.0) (1.096408422e-07 -2.181739152e-09 0.0) (1.111515558e-07 -2.361877588e-09 0.0) (1.12786275e-07 -2.554084792e-09 0.0) (1.145532502e-07 -2.758840284e-09 0.0) (1.164610327e-07 -2.976527906e-09 0.0) (1.18518404e-07 -3.207405692e-09 0.0) (1.207342803e-07 -3.451566753e-09 0.0) (1.23117592e-07 -3.708897635e-09 0.0) (1.256771312e-07 -3.979026962e-09 0.0) (1.284213643e-07 -4.261271431e-09 0.0) (1.313582047e-07 -4.554572254e-09 0.0) (1.34494743e-07 -4.857430237e-09 0.0) (1.378369293e-07 -5.167833378e-09 0.0) (1.41389208e-07 -5.483186984e-09 0.0) (1.451541023e-07 -5.800241646e-09 0.0) (1.491317523e-07 -6.115032488e-09 0.0) (1.533194128e-07 -6.422827361e-09 0.0) (1.577109202e-07 -6.718100922e-09 0.0) (1.622961476e-07 -6.994535661e-09 0.0) (1.670604714e-07 -7.245069233e-09 0.0) (1.719842824e-07 -7.461988405e-09 0.0) (1.770425781e-07 -7.637085191e-09 0.0) (1.822046788e-07 -7.761865975e-09 0.0) (1.874341053e-07 -7.827817452e-09 0.0) (1.926886478e-07 -7.826709164e-09 0.0) (1.979206516e-07 -7.750935939e-09 0.0) (2.030775369e-07 -7.593893993e-09 0.0) (2.081025842e-07 -7.3504211e-09 0.0) (2.129360362e-07 -7.017313734e-09 0.0) (2.175165895e-07 -6.593936847e-09 0.0) (2.217833477e-07 -6.082867903e-09 0.0) (2.256782593e-07 -5.490458634e-09 0.0) (2.291489371e-07 -4.827054884e-09 0.0) (2.321515057e-07 -4.106523179e-09 0.0) (2.346527847e-07 -3.344760563e-09 0.0) (2.366309877e-07 -2.557412697e-09 0.0) (2.380746508e-07 -1.757678721e-09 0.0) (2.389800966e-07 -9.550572801e-10 0.0) (2.393484636e-07 -1.556366314e-10 0.0) (2.39183612e-07 6.363795379e-10 0.0) (2.384914548e-07 1.416603697e-09 0.0) (2.372808917e-07 2.178353984e-09 0.0) (2.355661855e-07 2.911214927e-09 0.0) (2.333700922e-07 3.600782621e-09 0.0) (2.307266203e-07 4.229940474e-09 0.0) (2.276822767e-07 4.781187354e-09 0.0) (2.242954023e-07 5.239088338e-09 0.0) (2.206339164e-07 5.591984121e-09 0.0) (2.167722131e-07 5.832747556e-09 0.0) (2.127878745e-07 5.958832892e-09 0.0) (2.08758576e-07 5.971922169e-09 0.0) (2.047593706e-07 5.877317473e-09 0.0) (2.008604709e-07 5.683178256e-09 0.0) (1.971256092e-07 5.399657157e-09 0.0) (1.936110112e-07 5.038041834e-09 0.0) (1.903649477e-07 4.60997771e-09 0.0) (1.8742777e-07 4.126853756e-09 0.0) (1.848323026e-07 3.599359529e-09 0.0) (1.82604465e-07 3.037218287e-09 0.0) (1.807640148e-07 2.449050298e-09 0.0) (1.793253306e-07 1.842345056e-09 0.0) (1.782981764e-07 1.22349574e-09 0.0) (1.776884067e-07 5.978931322e-10 0.0) (1.77498689e-07 -3.001670885e-11 0.0) (1.777290108e-07 -6.564047695e-10 0.0) (1.783770121e-07 -1.278061758e-09 0.0) (1.794384838e-07 -1.892385162e-09 0.0) (1.809076698e-07 -2.497043619e-09 0.0) (1.827773564e-07 -3.089901681e-09 0.0) (1.850389736e-07 -3.668894726e-09 0.0) (1.876826036e-07 -4.231918656e-09 0.0) (1.906969193e-07 -4.776738799e-09 0.0) (1.940690626e-07 -5.30090975e-09 0.0) (1.977844789e-07 -5.801715712e-09 0.0) (2.018267139e-07 -6.276119895e-09 0.0) (2.061771828e-07 -6.720728939e-09 0.0) (2.108149207e-07 -7.131759639e-09 0.0) (2.157163108e-07 -7.50501322e-09 0.0) (2.208547949e-07 -7.835848021e-09 0.0) (2.262005661e-07 -8.11916403e-09 0.0) (2.317202488e-07 -8.349401442e-09 0.0) (2.373765823e-07 -8.520581929e-09 0.0) (2.431281405e-07 -8.626409697e-09 0.0) (2.489291428e-07 -8.660471259e-09 0.0) (2.547294303e-07 -8.616546853e-09 0.0) (2.60474706e-07 -8.489041792e-09 0.0) (2.66107108e-07 -8.273483414e-09 0.0) (2.715661458e-07 -7.967002651e-09 0.0) (2.7678994e-07 -7.568687353e-09 0.0) (2.817166318e-07 -7.079780816e-09 0.0) (2.86285861e-07 -6.503820612e-09 0.0) (2.904403647e-07 -5.846912076e-09 0.0) (2.94127902e-07 -5.118137091e-09 0.0) (2.973035347e-07 -4.329635261e-09 0.0) (2.999317335e-07 -3.495674136e-09 0.0) (3.019873573e-07 -2.63062327e-09 0.0) (3.034548647e-07 -1.746683082e-09 0.0) (3.043259193e-07 -8.524715498e-10 0.0) (3.045964733e-07 4.685613331e-11 0.0) (3.042645451e-07 9.482358853e-10 0.0) (3.033293903e-07 1.848624239e-09 0.0) (3.017922957e-07 2.74294217e-09 0.0) (2.996587651e-07 3.622668624e-09 0.0) (2.969414383e-07 4.475706984e-09 0.0) (2.936624782e-07 5.287786069e-09 0.0) (2.898543647e-07 6.044697526e-09 0.0) (2.855589603e-07 6.734290472e-09 0.0) (2.808254617e-07 7.3473766e-09 0.0) (2.757081943e-07 7.87762833e-09 0.0) (2.702647724e-07 8.321169924e-09 0.0) (2.645545813e-07 8.676323126e-09 0.0) (2.586373612e-07 8.943516798e-09 0.0) (2.525718128e-07 9.12516144e-09 0.0) (2.464143187e-07 9.225393316e-09 0.0) (2.402178892e-07 9.249702455e-09 0.0) (2.340313911e-07 9.204542576e-09 0.0) (2.27899042e-07 9.096980625e-09 0.0) (2.21860119e-07 8.934421839e-09 0.0) (2.159488272e-07 8.724387578e-09 0.0) (2.10194296e-07 8.474336251e-09 0.0) (2.046206878e-07 8.191501054e-09 0.0) (1.99247401e-07 7.8827524e-09 0.0) (1.940893658e-07 7.554477986e-09 0.0) (1.891574076e-07 7.212497457e-09 0.0) (1.844586591e-07 6.862003378e-09 0.0) (1.799969992e-07 6.507539165e-09 0.0) (1.757734964e-07 6.15299823e-09 0.0) (1.717868422e-07 5.801649777e-09 0.0) (1.680337607e-07 5.456173234e-09 0.0) (1.645093905e-07 5.118707067e-09 0.0) (1.612076292e-07 4.790895819e-09 0.0) (1.581214459e-07 4.473943901e-09 0.0) (1.55243159e-07 4.168661847e-09 0.0) (1.525646808e-07 3.875515962e-09 0.0) (1.500777323e-07 3.594668571e-09 0.0) (1.477740304e-07 3.326020884e-09 0.0) (1.456454493e-07 3.069246087e-09 0.0) (1.436841594e-07 2.823825419e-09 0.0) (1.418827453e-07 2.589074758e-09 0.0) (1.402343046e-07 2.364174689e-09 0.0) (1.3873253e-07 2.148191493e-09 0.0) (1.373717765e-07 1.940102519e-09 0.0) (1.361471141e-07 1.738812522e-09 0.0) (1.350543684e-07 1.543175314e-09 0.0) (1.340901499e-07 1.352006542e-09 0.0) (1.332518719e-07 1.164102621e-09 0.0) (1.325377602e-07 9.782508907e-10 0.0) (1.319468529e-07 7.932466917e-10 0.0) (1.314789913e-07 6.079016351e-10 0.0) (1.311348025e-07 4.21059371e-10 0.0) (1.309156702e-07 2.31601508e-10 0.0) (1.308237235e-07 3.845947637e-11 0.0) (1.308617906e-07 -1.593472569e-10 0.0) (1.310333125e-07 -3.62712914e-10 0.0) (1.313423138e-07 -5.724679336e-10 0.0) (1.317933574e-07 -7.893363222e-10 0.0) (1.323914517e-07 -1.013924102e-09 0.0) (1.331419677e-07 -1.246702996e-09 0.0) (1.340505489e-07 -1.488002231e-09 0.0) (1.35123011e-07 -1.737989396e-09 0.0) (1.363652304e-07 -1.996661617e-09 0.0) (1.377830246e-07 -2.263826208e-09 0.0) (1.393820223e-07 -2.539092809e-09 0.0) (1.411675248e-07 -2.821855356e-09 0.0) (1.431443601e-07 -3.111286675e-09 0.0) (1.453167287e-07 -3.406322997e-09 0.0) (1.476880455e-07 -3.705662214e-09 0.0) (1.502607749e-07 -4.007751441e-09 0.0) (1.530362642e-07 -4.31078858e-09 0.0) (1.560145735e-07 -4.612712237e-09 0.0) (1.591943033e-07 -4.911204568e-09 0.0) (1.625724212e-07 -5.2036806e-09 0.0) (1.661440844e-07 -5.487288989e-09 0.0) (1.699024586e-07 -5.758896259e-09 0.0) (1.738385293e-07 -6.015079812e-09 0.0) (1.779409037e-07 -6.252100781e-09 0.0) (1.821955935e-07 -6.465883658e-09 0.0) (1.865857759e-07 -6.651977551e-09 0.0) (1.910915288e-07 -6.805537665e-09 0.0) (1.95689545e-07 -6.921318847e-09 0.0) (2.003528539e-07 -6.993742781e-09 0.0) (2.050506016e-07 -7.017046998e-09 0.0) (2.097479724e-07 -6.985576596e-09 0.0) (2.144063526e-07 -6.894188202e-09 0.0) (2.189838286e-07 -6.738753693e-09 0.0) (2.23436048e-07 -6.516644663e-09 0.0) (2.277173968e-07 -6.227126409e-09 0.0) (2.3178238e-07 -5.871588665e-09 0.0) (2.355871026e-07 -5.453714472e-09 0.0) (2.390908763e-07 -4.979700335e-09 0.0) (2.422580837e-07 -4.458555585e-09 0.0) (2.450602953e-07 -3.902052153e-09 0.0) (2.474781513e-07 -3.323783689e-09 0.0) (2.49502162e-07 -2.73720928e-09 0.0) (2.511318062e-07 -2.153396423e-09 0.0) (2.523730869e-07 -1.57933658e-09 0.0) (2.532351664e-07 -1.017247453e-09 0.0) (2.537269018e-07 -4.649808317e-10 0.0) (2.538540812e-07 8.280173955e-11 0.0) (2.536176806e-07 6.330519978e-10 0.0) (2.530133247e-07 1.192543934e-09 0.0) (2.520320586e-07 1.766068681e-09 0.0) (2.506623381e-07 2.354807841e-09 0.0) (2.488931377e-07 2.955109329e-09 0.0) (2.467177315e-07 3.558148219e-09 0.0) (2.441373313e-07 4.150740474e-09 0.0) (2.411636858e-07 4.717345264e-09 0.0) (2.378198336e-07 5.242795612e-09 0.0) (2.341387612e-07 5.714788293e-09 0.0) (2.301605797e-07 6.125219244e-09 0.0) (2.259292791e-07 6.470224812e-09 0.0) (2.214899171e-07 6.749362943e-09 0.0) (2.168866489e-07 6.964498283e-09 0.0) (2.121615919e-07 7.118793209e-09 0.0) (2.07354311e-07 7.216016627e-09 0.0) (2.025016485e-07 7.260166429e-09 0.0) (1.976376967e-07 7.255317894e-09 0.0) (1.927937964e-07 7.205580444e-09 0.0) (1.879985275e-07 7.115090662e-09 0.0) (1.83277695e-07 6.987994685e-09 0.0) (1.786543257e-07 6.828412897e-09 0.0) (1.741487002e-07 6.64038696e-09 0.0) (1.697784231e-07 6.427821426e-09 0.0) (1.655585354e-07 6.194427398e-09 0.0) (1.615016641e-07 5.943675053e-09 0.0) (1.576181992e-07 5.678757338e-09 0.0) (1.539164925e-07 5.402565631e-09 0.0) (1.504030671e-07 5.117676608e-09 0.0) (1.470828344e-07 4.826349297e-09 0.0) (1.439593049e-07 4.530530428e-09 0.0) (1.410347972e-07 4.231866935e-09 0.0) (1.383106335e-07 3.931723559e-09 0.0) (1.35787322e-07 3.631204008e-09 0.0) (1.334647243e-07 3.331174251e-09 0.0) (1.313422059e-07 3.032286577e-09 0.0) (1.294187708e-07 2.73500358e-09 0.0) (1.276931798e-07 2.43962121e-09 0.0) (1.261640542e-07 2.146290784e-09 0.0) (1.248299641e-07 1.855039122e-09 0.0) (1.23689505e-07 1.565787545e-09 0.0) (1.227413619e-07 1.278368915e-09 0.0) (1.219843622e-07 9.925436128e-10 0.0) (1.214175214e-07 7.080140678e-10 0.0) (1.210400223e-07 4.244407092e-10 0.0) (1.20804304e-07 1.415899063e-10 0.0) (0.0005166407619 0.0001249488592 0.0) (0.000522094162 0.0001826308133 0.0) (0.0005002317758 0.0001613974893 0.0) (0.0004575466537 0.00012845639 0.0) (0.0004110336009 9.970311956e-05 0.0) (0.0003679392171 7.715731788e-05 0.0) (0.0003299641867 6.036579544e-05 0.0) (0.0002971461141 4.810177275e-05 0.0) (0.0002689432106 3.913299523e-05 0.0) (0.0002446372942 3.249565434e-05 0.0) (0.0002235347433 2.750279586e-05 0.0) (0.0002050416677 2.36790666e-05 0.0) (0.0001886748012 2.069730593e-05 0.0) (0.0001740494292 1.833112953e-05 0.0) (0.0001608619676 1.642203186e-05 0.0) (0.0001488733137 1.485732097e-05 0.0) (0.000137894815 1.355553821e-05 0.0) (0.0001277770863 1.245683329e-05 0.0) (0.0001184013231 1.151655961e-05 0.0) (0.0001096726196 1.070095707e-05 0.0) (0.0001015148364 9.984196776e-06 0.0) (9.386664837e-05 9.346323802e-06 0.0) (8.667848941e-05 8.771796914e-06 0.0) (7.991019166e-05 8.248399718e-06 0.0) (7.352914712e-05 7.766303383e-06 0.0) (6.750877218e-05 7.317245327e-06 0.0) (6.18268488e-05 6.894235027e-06 0.0) (5.646499877e-05 6.49103191e-06 0.0) (5.14069516e-05 6.104969662e-06 0.0) (4.664002951e-05 5.737007872e-06 0.0) (4.215451547e-05 5.387499549e-06 0.0) (3.793896043e-05 5.054139964e-06 0.0) (3.398556241e-05 4.73328413e-06 0.0) (3.028689832e-05 4.421186866e-06 0.0) (2.683470804e-05 4.116475424e-06 0.0) (2.362147301e-05 3.819795424e-06 0.0) (2.063999329e-05 3.531763766e-06 0.0) (1.788332886e-05 3.252850548e-06 0.0) (1.534442508e-05 2.983335241e-06 0.0) (1.301599063e-05 2.723459103e-06 0.0) (1.089046844e-05 2.473509835e-06 0.0) (8.960031902e-06 2.233833964e-06 0.0) (7.216578072e-06 2.004822463e-06 0.0) (5.651737084e-06 1.786865347e-06 0.0) (4.257268211e-06 1.580387849e-06 0.0) (3.025906119e-06 1.385618893e-06 0