/*--------------------------------*- C++ -*----------------------------------*\
  =========                 |
  \\      /  F ield         | OpenFOAM: The Open Source CFD Toolbox
   \\    /   O peration     | Website:  https://openfoam.org
    \\  /    A nd           | Version:  7
     \\/     M anipulation  |
\*---------------------------------------------------------------------------*/
FoamFile
{
    version     2.0;
    format      ascii;
    class       volVectorField;
    location    "0";
    object      U;
}
// * * * * * * * * * * * * * * * * * * * * * * * * * * * * * * * * * * * * * //

dimensions      [0 1 -1 0 0 0 0];

internalField nonuniform List<vector> 54806((0.0003128245301 1.928000243e-05 0.0) (0.0002968108304 4.931113574e-05 0.0) (0.0002203403817 2.663788961e-05 0.0) (0.0001584021503 1.226426044e-05 0.0) (0.0001217539553 6.829496876e-06 0.0) (9.897221715e-05 4.020553921e-06 0.0) (8.345275945e-05 2.419313432e-06 0.0) (7.246214642e-05 1.529420228e-06 0.0) (6.446781864e-05 1.021689836e-06 0.0) (5.850584332e-05 7.133242039e-07 0.0) (5.3978066e-05 5.13923469e-07 0.0) (5.050577925e-05 3.775514532e-07 0.0) (4.783778731e-05 2.795734238e-07 0.0) (4.579988764e-05 2.062393716e-07 0.0) (4.42666361e-05 1.495680925e-07 0.0) (4.314480314e-05 1.046656813e-07 0.0) (4.236319732e-05 6.831779955e-08 0.0) (4.186517456e-05 3.852504599e-08 0.0) (4.160956507e-05 1.42496648e-08 0.0) (4.155722043e-05 -7.031372455e-09 0.0) (4.167602448e-05 -2.405934387e-08 0.0) (4.194934969e-05 -3.892938901e-08 0.0) (4.23518687e-05 -5.179063787e-08 0.0) (4.286774398e-05 -6.278758587e-08 0.0) (4.348231459e-05 -7.229529013e-08 0.0) (4.418295518e-05 -8.055758846e-08 0.0) (4.495874011e-05 -8.7737114e-08 0.0) (4.580007313e-05 -9.398460504e-08 0.0) (4.669842834e-05 -9.94008052e-08 0.0) (4.764612577e-05 -1.040810298e-07 0.0) (4.86361613e-05 -1.080816099e-07 0.0) (4.966204669e-05 -1.114590528e-07 0.0) (5.071769262e-05 -1.142398766e-07 0.0) (5.179729464e-05 -1.164534991e-07 0.0) (5.289525469e-05 -1.181065554e-07 0.0) (5.40061018e-05 -1.192098161e-07 0.0) (5.512444359e-05 -1.197574616e-07 0.0) (5.624491518e-05 -1.197482118e-07 0.0) (5.736215586e-05 -1.191697785e-07 0.0) (5.847078277e-05 -1.180144634e-07 0.0) (5.956538998e-05 -1.16268696e-07 0.0) (6.064054507e-05 -1.139234695e-07 0.0) (6.169080964e-05 -1.109687504e-07 0.0) (6.271075836e-05 -1.073992248e-07 0.0) (6.369502092e-05 -1.032132076e-07 0.0) (6.463832453e-05 -9.841429119e-08 0.0) (6.553555881e-05 -9.301436457e-08 0.0) (6.638184403e-05 -8.703181421e-08 0.0) (6.717262221e-05 -8.049824998e-08 0.0) (6.790375514e-05 -7.34539979e-08 0.0) (6.85716471e-05 -6.595823053e-08 0.0) (6.9173379e-05 -5.808251377e-08 0.0) (6.970687058e-05 -4.992415661e-08 0.0) (7.017106014e-05 -4.159871977e-08 0.0) (7.05661177e-05 -3.325737312e-08 0.0) (7.089367803e-05 -2.508099178e-08 0.0) (7.115709094e-05 -1.729171726e-08 0.0) (7.136178739e-05 -1.0122181e-08 0.0) (7.151563099e-05 -3.904731495e-09 0.0) (7.162855552e-05 9.299783887e-10 0.0) (7.171423118e-05 4.103949724e-09 0.0) (7.179049289e-05 5.033345564e-09 0.0) (7.187845303e-05 3.069226954e-09 0.0) (7.20040186e-05 -2.358538801e-09 0.0) (7.219846826e-05 -1.202139339e-08 0.0) (7.249729494e-05 -2.688895561e-08 0.0) (7.294131135e-05 -4.773660907e-08 0.0) (7.357731063e-05 -7.548642154e-08 0.0) (7.445662999e-05 -1.11014928e-07 0.0) (7.563451969e-05 -1.550360482e-07 0.0) (7.716847167e-05 -2.080242876e-07 0.0) (7.911572392e-05 -2.700371466e-07 0.0) (8.152977215e-05 -3.405354106e-07 0.0) (8.445578145e-05 -4.181481256e-07 0.0) (8.792494069e-05 -5.004746806e-07 0.0) (9.194800429e-05 -5.839015059e-07 0.0) (9.650851796e-05 -6.635355015e-07 0.0) (0.0001015565979 -7.332997008e-07 0.0) (0.0001070047527 -7.863926749e-07 0.0) (0.0001127276945 -8.161209608e-07 0.0) (0.0001185681827 -8.171653135e-07 0.0) (0.0001243505624 -7.871304228e-07 0.0) (0.0001299025037 -7.281303012e-07 0.0) (0.0001350833329 -6.478836091e-07 0.0) (0.0001398143727 -5.597146565e-07 0.0) (0.0001441041317 -4.81003736e-07 0.0) (0.0001480620284 -4.308463668e-07 0.0) (0.0001518961987 -4.268926974e-07 0.0) (0.0001558866269 -4.791810783e-07 0.0) (0.0001603344488 -5.869932645e-07 0.0) (0.0001655087615 -7.415221309e-07 0.0) (0.0001716014195 -9.265826348e-07 0.0) (0.0001786842925 -1.118221512e-06 0.0) (0.0001866709779 -1.285890041e-06 0.0) (0.0001952897463 -1.394507392e-06 0.0) (0.0002040743259 -1.408270465e-06 0.0) (0.0002123813904 -1.296261634e-06 0.0) (0.0002194479396 -1.038112883e-06 0.0) (0.0002245320719 -6.437849114e-07 0.0) (0.0002268392026 -1.582119035e-07 0.0) (0.0002261772799 3.922538665e-07 0.0) (0.0002225216331 8.786462598e-07 0.0) (0.0002161736726 1.267538154e-06 0.0) (0.0002079070163 1.514872075e-06 0.0) (0.0001985143715 1.61266306e-06 0.0) (0.000188789667 1.581700472e-06 0.0) (0.000179402934 1.453877319e-06 0.0) (0.0001708469577 1.26486074e-06 0.0) (0.0001634250606 1.048411127e-06 0.0) (0.000157265422 8.329718718e-07 0.0) (0.0001523595563 6.363749185e-07 0.0) (0.0001486127797 4.671399023e-07 0.0) (0.0001458796763 3.306338068e-07 0.0) (0.0001439879631 2.281003734e-07 0.0) (0.0001427649695 1.562971805e-07 0.0) (0.000142064994 1.090643712e-07 0.0) (0.0001417875113 7.627827238e-08 0.0) (0.0001418656208 4.687076672e-08 0.0) (0.0001423193464 1.548912306e-08 0.0) (0.0001432206606 -2.930035389e-08 0.0) (0.0001446635785 -9.323625652e-08 0.0) (0.0001467748549 -1.792742486e-07 0.0) (0.0001496968408 -2.881562097e-07 0.0) (0.0001535733017 -4.189905161e-07 0.0) (0.000158535405 -5.691340961e-07 0.0) (0.0001646950884 -7.349492777e-07 0.0) (0.0001721401951 -9.125482854e-07 0.0) (0.0001809328663 -1.09817449e-06 0.0) (0.0001911102653 -1.288504992e-06 0.0) (0.0002026866873 -1.480739242e-06 0.0) (0.0002156562234 -1.672623605e-06 0.0) (0.000229995272 -1.862301001e-06 0.0) (0.0002456643691 -2.048163005e-06 0.0) (0.0002626090095 -2.228597596e-06 0.0) (0.0002807593346 -2.40180847e-06 0.0) (0.0003000287478 -2.56559094e-06 0.0) (0.0003203116631 -2.717226683e-06 0.0) (0.0003414806296 -2.853338425e-06 0.0) (0.0003633830067 -2.969822684e-06 0.0) (0.0003858374466 -3.061771383e-06 0.0) (0.0004086303624 -3.123433586e-06 0.0) (0.0004315122231 -3.14801637e-06 0.0) (0.0004541937065 -3.127595804e-06 0.0) (0.0004763429189 -3.053363166e-06 0.0) (0.0004975870088 -2.916925157e-06 0.0) (0.0005175228251 -2.712601626e-06 0.0) (0.0005357414728 -2.440956405e-06 0.0) (0.0005518699863 -2.11245612e-06 0.0) (0.0005656299867 -1.751296347e-06 0.0) (0.0005768803614 -1.385438752e-06 0.0) (0.0005855891324 -1.025888349e-06 0.0) (0.0005917691988 -6.717426018e-07 0.0) (0.0005954174049 -3.230041601e-07 0.0) (0.0005965301109 3.000649671e-08 0.0) (0.0005951618915 3.795066854e-07 0.0) (0.0005912260735 7.31892985e-07 0.0) (0.0005847509046 1.089455767e-06 0.0) (0.0005757097725 1.453443284e-06 0.0) (0.0005640788383 1.82718157e-06 0.0) (0.000549869491 2.200571994e-06 0.0) (0.0005332022583 2.545353609e-06 0.0) (0.0005143446566 2.835161539e-06 0.0) (0.0004936776364 3.055829639e-06 0.0) (0.0004716426425 3.202394324e-06 0.0) (0.0004487010027 3.276322852e-06 0.0) (0.000425305176 3.283083572e-06 0.0) (0.0004018788856 3.230660474e-06 0.0) (0.0003788038739 3.128384478e-06 0.0) (0.000356413111 2.9857533e-06 0.0) (0.0003349904552 2.811392592e-06 0.0) (0.0003147758463 2.612277496e-06 0.0) (0.0002959744794 2.393281813e-06 0.0) (0.0002787683433 2.156961205e-06 0.0) (0.0002633289665 1.90348229e-06 0.0) (0.000249830963 1.630674936e-06 0.0) (0.000238466951 1.333596188e-06 0.0) (0.0002294611241 1.001584563e-06 0.0) (0.0002230405273 6.282006002e-07 0.0) (0.0002196446082 2.143053382e-07 0.0) (0.00021950794 -3.010904684e-07 0.0) (0.0002230478627 -8.72838589e-07 0.0) (0.000230907364 -1.554800862e-06 0.0) (0.0002434888342 -2.346832694e-06 0.0) (0.0002613106965 -3.248821074e-06 0.0) (0.0002847531418 -4.241389056e-06 0.0) (0.0003139195997 -5.263689232e-06 0.0) (0.0003484328719 -6.211528634e-06 0.0) (0.0003872100928 -6.928440021e-06 0.0) (0.00042824848 -7.213480626e-06 0.0) (0.0004685024443 -6.84596484e-06 0.0) (0.0005040013093 -5.633282247e-06 0.0) (0.0005306107655 -3.568675142e-06 0.0) (0.0005443941545 -1.11284747e-06 0.0) (0.000544939701 1.459109159e-06 0.0) (0.0005331556213 3.644844311e-06 0.0) (0.0005106905713 5.185227279e-06 0.0) (0.0004824560859 5.72027505e-06 0.0) (0.0004529739545 5.431758837e-06 0.0) (0.0004258476225 4.615343316e-06 0.0) (0.0004033331953 3.540180719e-06 0.0) (0.0003863939455 2.446123906e-06 0.0) (0.0003749571828 1.486785777e-06 0.0) (0.0003683647195 6.885279696e-07 0.0) (0.0003660278254 5.181592099e-08 0.0) (0.0003669488233 -4.528598873e-07 0.0) (0.0003702469458 -7.675512208e-07 0.0) (0.0003751229107 -9.381225944e-07 0.0) (0.0003807340225 -9.887089554e-07 0.0) (0.0003864417074 -9.44496533e-07 0.0) (0.0003917382791 -8.327058376e-07 0.0) (0.000396246187 -6.752212857e-07 0.0) (0.0003996967641 -4.872638504e-07 0.0) (0.0004019015109 -2.812291662e-07 0.0) (0.0004027158843 -6.30583443e-08 0.0) (0.0004021092333 1.623689597e-07 0.0) (0.0003999861736 3.841000946e-07 0.0) (0.0003963354523 6.065616021e-07 0.0) (0.0003911814743 8.237371332e-07 0.0) (0.0003845390438 1.035712197e-06 0.0) (0.0003764460509 1.241591551e-06 0.0) (0.0003669747371 1.432645499e-06 0.0) (0.0003562518186 1.597915794e-06 0.0) (0.0003444506786 1.731483839e-06 0.0) (0.0003317683521 1.831710633e-06 0.0) (0.0003184092375 1.898988582e-06 0.0) (0.0003045749738 1.935372672e-06 0.0) (0.0002904560978 1.944104393e-06 0.0) (0.0002762257493 1.929168413e-06 0.0) (0.0002620360081 1.894714864e-06 0.0) (0.0002480170626 1.844618027e-06 0.0) (0.0002342784505 1.782200309e-06 0.0) (0.0002209113346 1.710213545e-06 0.0) (0.0002079908026 1.630928471e-06 0.0) (0.0001955777825 1.546271722e-06 0.0) (0.0001837204966 1.457911359e-06 0.0) (0.0001724555642 1.3673538e-06 0.0) (0.0001618088531 1.275967742e-06 0.0) (0.0001517963675 1.184976152e-06 0.0) (0.0001424252845 1.095416976e-06 0.0) (0.0001336951816 1.008125879e-06 0.0) (0.0001255993519 9.237266724e-07 0.0) (0.0001181261306 8.4264689e-07 0.0) (0.0001112601231 7.651408469e-07 0.0) (0.0001049832969 6.913208139e-07 0.0) (9.927589172e-05 6.211901281e-07 0.0) (9.411715526e-05 5.546700558e-07 0.0) (8.948590668e-05 4.916292676e-07 0.0) (8.536095745e-05 4.318992614e-07 0.0) (8.172139593e-05 3.75298152e-07 0.0) (7.854677412e-05 3.216354369e-07 0.0) (7.581719462e-05 2.707326226e-07 0.0) (7.351332762e-05 2.224225044e-07 0.0) (7.161636375e-05 1.765807578e-07 0.0) (7.010802285e-05 1.331061097e-07 0.0) (6.897056547e-05 9.173268758e-08 0.0) (6.818411843e-05 5.236271571e-08 0.0) (6.773512354e-05 1.612363457e-08 0.0) (6.760683436e-05 -1.888530897e-08 0.0) (6.776875737e-05 -5.163678627e-08 0.0) (6.821092504e-05 -8.161665615e-08 0.0) (6.891298898e-05 -1.095301917e-07 0.0) (6.985398076e-05 -1.349207301e-07 0.0) (7.101335996e-05 -1.575855571e-07 0.0) (7.236993076e-05 -1.774983162e-07 0.0) (7.390244757e-05 -1.946378879e-07 0.0) (7.559017868e-05 -2.090643445e-07 0.0) (7.741354329e-05 -2.209145663e-07 0.0) (7.935492378e-05 -2.304752308e-07 0.0) (8.139960082e-05 -2.381566536e-07 0.0) (8.353678651e-05 -2.445562855e-07 0.0) (8.576065685e-05 -2.504063919e-07 0.0) (8.807132403e-05 -2.566155774e-07 0.0) (9.047562381e-05 -2.641793593e-07 0.0) (9.298764764e-05 -2.741953905e-07 0.0) (9.562890915e-05 -2.877409014e-07 0.0) (9.842812276e-05 -3.058753499e-07 0.0) (0.0001014205483 -3.295066934e-07 0.0) (0.0001046469646 -3.594088169e-07 0.0) (0.000108152309 -3.961046664e-07 0.0) (0.0001119841168 -4.399215111e-07 0.0) (0.0001161908393 -4.909051732e-07 0.0) (0.0001208201921 -5.489164421e-07 0.0) (0.0001259175916 -6.135702401e-07 0.0) (0.000131524792 -6.843593645e-07 0.0) (0.0001376787314 -7.606009314e-07 0.0) (0.0001444106381 -8.415683542e-07 0.0) (0.0001517453513 -9.264277388e-07 0.0) (0.000159700856 -1.014363494e-06 0.0) (0.0001682879505 -1.104493265e-06 0.0) (0.0001775100034 -1.19597778e-06 0.0) (0.0001873627009 -1.287903581e-06 0.0) (0.0001978336724 -1.379358362e-06 0.0) (0.0002089018302 -1.469246144e-06 0.0) (0.0002205361693 -1.556268358e-06 0.0) (0.0002326936881 -1.638582311e-06 0.0) (0.0002453161637 -1.713666452e-06 0.0) (0.0002583260858 -1.778049919e-06 0.0) (0.0002716224937 -1.82747835e-06 0.0) (0.0002850776923 -1.856945578e-06 0.0) (0.0002985358719 -1.861282082e-06 0.0) (0.0003118152698 -1.835771026e-06 0.0) (0.0003247142986 -1.777040805e-06 0.0) (0.0003370211097 -1.683417993e-06 0.0) (0.0003485250551 -1.555489903e-06 0.0) (0.0003590297973 -1.396284798e-06 0.0) (0.0003683720365 -1.213632249e-06 0.0) (0.000376447226 -1.020929872e-06 0.0) (0.000383220766 -8.303077832e-07 0.0) (0.0003887129531 -6.48219195e-07 0.0) (0.0003929834124 -4.806842223e-07 0.0) (0.000396122928 -3.318186828e-07 0.0) (0.0003982397434 -2.029704806e-07 0.0) (0.0003994254356 -9.174288453e-08 0.0) (0.0003997531989 1.346422325e-08 0.0) (0.0003992562231 1.170178399e-07 0.0) (0.0003978687196 2.333479023e-07 0.0) (0.0003955257155 3.693722194e-07 0.0) (0.0003921083254 5.275884135e-07 0.0) (0.0003874968083 7.071497181e-07 0.0) (0.0003815889511 9.036322828e-07 0.0) (0.0003743182445 1.109967465e-06 0.0) (0.0003656744073 1.314555258e-06 0.0) (0.0003557340167 1.497506925e-06 0.0) (0.0003446701234 1.642350649e-06 0.0) (0.0003327162636 1.743594513e-06 0.0) (0.0003201185708 1.803818527e-06 0.0) (0.0003071033407 1.829954196e-06 0.0) (0.0002938623555 1.829721082e-06 0.0) (0.0002805518341 1.809714981e-06 0.0) (0.0002672975915 1.77487319e-06 0.0) (0.0002542016673 1.728815204e-06 0.0) (0.0002413475901 1.673984947e-06 0.0) (0.0002288049435 1.612351096e-06 0.0) (0.000216631334 1.54520275e-06 0.0) (0.0002048751159 1.474045848e-06 0.0) (0.0001935748264 1.399611067e-06 0.0) (0.0001827623167 1.323453724e-06 0.0) (0.0001724599123 1.245659359e-06 0.0) (0.0001626861161 1.16822832e-06 0.0) (0.0001534485274 1.090176868e-06 0.0) (0.0001447553814 1.014715833e-06 0.0) (0.0001365996789 9.387556196e-07 0.0) (0.0001289836731 8.682212795e-07 0.0) (0.0001218840636 7.956854674e-07 0.0) (0.0001153044026 7.330188753e-07 0.0) (0.0001091990579 6.637971654e-07 0.0) (0.0001035860686 6.127013394e-07 0.0) (9.838151476e-05 5.445493638e-07 0.0) (9.364374782e-05 5.111838447e-07 0.0) (8.921296319e-05 4.384370304e-07 0.0) (8.524130519e-05 4.348559888e-07 0.0) (8.140832758e-05 3.466272092e-07 0.0) (7.807164942e-05 3.981337937e-07 0.0) (7.456166728e-05 2.798711199e-07 0.0) (7.166514414e-05 4.377863396e-07 0.0) (6.79658907e-05 2.817404861e-07 0.0) (6.517350984e-05 5.801556277e-07 0.0) (6.015278771e-05 3.841050424e-07 0.0) (5.670065517e-05 1.673320732e-06 0.0) (4.728455003e-05 3.623739594e-06 0.0) (0.0004940448948 0.0001335444468 0.0) (0.000478434074 0.0001603689467 0.0) (0.0004170746381 0.0001161735435 0.0) (0.000350947508 7.740120899e-05 0.0) (0.0002974403124 5.257424003e-05 0.0) (0.0002565411666 3.638448068e-05 0.0) (0.0002250011836 2.580477194e-05 0.0) (0.0002005920256 1.879646519e-05 0.0) (0.0001816349675 1.401428406e-05 0.0) (0.0001668372626 1.063252399e-05 0.0) (0.0001552429809 8.155655799e-06 0.0) (0.0001461555563 6.283047389e-06 0.0) (0.0001390626967 4.828046647e-06 0.0) (0.0001335812886 3.671611951e-06 0.0) (0.0001294197865 2.735226519e-06 0.0) (0.0001263524344 1.965521823e-06 0.0) (0.0001242015103 1.324813982e-06 0.0) (0.0001228246221 7.858656258e-07 0.0) (0.00012210725 3.29125582e-07 0.0) (0.0001219557004 -5.854908112e-08 0.0) (0.0001222878914 -3.935886573e-07 0.0) (0.0001230431665 -6.833241109e-07 0.0) (0.0001241642721 -9.343295602e-07 0.0) (0.0001256047083 -1.152549433e-06 0.0) (0.0001273241312 -1.342814841e-06 0.0) (0.000129287545 -1.508859295e-06 0.0) (0.0001314643544 -1.653792544e-06 0.0) (0.0001338275452 -1.780019643e-06 0.0) (0.0001363529794 -1.889562779e-06 0.0) (0.0001390188427 -1.983938988e-06 0.0) (0.0001418051543 -2.064421797e-06 0.0) (0.0001446933823 -2.131913051e-06 0.0) (0.0001476660939 -2.18716194e-06 0.0) (0.000150706688 -2.230643006e-06 0.0) (0.0001537991491 -2.262742366e-06 0.0) (0.0001569278699 -2.283647973e-06 0.0) (0.0001600774872 -2.293508769e-06 0.0) (0.0001632327794 -2.292340111e-06 0.0) (0.0001663785724 -2.280159754e-06 0.0) (0.0001694997017 -2.256909495e-06 0.0) (0.0001725809833 -2.222571066e-06 0.0) (0.0001756072364 -2.177104216e-06 0.0) (0.0001785633152 -2.120545358e-06 0.0) (0.0001814341911 -2.052961824e-06 0.0) (0.0001842050472 -1.974536176e-06 0.0) (0.0001868614225 -1.885536387e-06 0.0) (0.0001893893715 -1.786389e-06 0.0) (0.0001917756766 -1.677665164e-06 0.0) (0.0001940080823 -1.560146145e-06 0.0) (0.0001960755846 -1.434825661e-06 0.0) (0.0001979687526 -1.302971547e-06 0.0) (0.0001996801106 -1.166145266e-06 0.0) (0.0002012045645 -1.026263589e-06 0.0) (0.0002025398969 -8.856363056e-07 0.0) (0.000203687319 -7.470310173e-07 0.0) (0.0002046520973 -6.13727653e-07 0.0) (0.0002054442393 -4.895734917e-07 0.0) (0.0002060792937 -3.789942878e-07 0.0) (0.000206579249 -2.869980292e-07 0.0) (0.000206973353 -2.195697139e-07 0.0) (0.0002072993147 -1.84085777e-07 0.0) (0.0002076042972 -1.883040616e-07 0.0) (0.0002079458891 -2.40783021e-07 0.0) (0.0002083931376 -3.510435046e-07 0.0) (0.0002090273243 -5.288608187e-07 0.0) (0.0002099424617 -7.8430185e-07 0.0) (0.0002112455015 -1.12812002e-06 0.0) (0.0002130559176 -1.570402292e-06 0.0) (0.0002155040589 -2.119582433e-06 0.0) (0.0002187284787 -2.781397273e-06 0.0) (0.0002228715239 -3.557377919e-06 0.0) (0.0002280729122 -4.443054682e-06 0.0) (0.0002344610093 -5.425876554e-06 0.0) (0.0002421416629 -6.483162414e-06 0.0) (0.0002511847826 -7.580297968e-06 0.0) (0.0002616093717 -8.669783384e-06 0.0) (0.000273368231 -9.691553826e-06 0.0) (0.0002863343722 -1.057564038e-05 0.0) (0.0003002925403 -1.124818089e-05 0.0) (0.0003149402182 -1.164129025e-05 0.0) (0.0003299025552 -1.170641767e-05 0.0) (0.0003447647662 -1.142976972e-05 0.0) (0.0003591229405 -1.084653422e-05 0.0) (0.0003726494767 -1.004921646e-05 0.0) (0.0003851625594 -9.184551481e-06 0.0) (0.0003966826073 -8.436353378e-06 0.0) (0.00040746126 -7.998474372e-06 0.0) (0.0004179751049 -8.038603601e-06 0.0) (0.0004288626026 -8.64693851e-06 0.0) (0.0004408036906 -9.808406902e-06 0.0) (0.000454396014 -1.141438726e-05 0.0) (0.0004700523936 -1.327084193e-05 0.0) (0.0004879032498 -1.510338171e-05 0.0) (0.0005077107023 -1.657484315e-05 0.0) (0.0005288110673 -1.731410978e-05 0.0) (0.0005500996427 -1.696106501e-05 0.0) (0.0005700782718 -1.523018848e-05 0.0) (0.0005869900182 -1.198770256e-05 0.0) (0.0005990594666 -7.327667418e-06 0.0) (0.0006047252637 -1.655549257e-06 0.0) (0.0006032374321 4.297817466e-06 0.0) (0.0005945601773 9.899002245e-06 0.0) (0.0005796355426 1.442780464e-05 0.0) (0.0005600868707 1.747263769e-05 0.0) (0.0005377933862 1.893739232e-05 0.0) (0.0005146011341 1.896370669e-05 0.0) (0.0004920859562 1.78419544e-05 0.0) (0.0004714299896 1.592715083e-05 0.0) (0.0004533872797 1.357417376e-05 0.0) (0.000438307818 1.109235892e-05 0.0) (0.0004262196956 8.701787607e-06 0.0) (0.0004169449894 6.535480646e-06 0.0) (0.000410179029 4.674594676e-06 0.0) (0.0004055445228 3.147994723e-06 0.0) (0.0004026577143 1.931730111e-06 0.0) (0.0004011907786 9.605305489e-07 0.0) (0.0004009182672 1.427920181e-07 0.0) (0.00040173132 -6.341759903e-07 0.0) (0.0004036668478 -1.490415025e-06 0.0) (0.0004068768386 -2.510783453e-06 0.0) (0.0004116121113 -3.757170598e-06 0.0) (0.0004181917103 -5.270288467e-06 0.0) (0.00042696621 -7.066089355e-06 0.0) (0.0004382851839 -9.134367557e-06 0.0) (0.0004524697692 -1.144470721e-05 0.0) (0.0004697931782 -1.395394183e-05 0.0) (0.0004904686915 -1.661256811e-05 0.0) (0.0005146448881 -1.937003027e-05 0.0) (0.0005424064157 -2.217827131e-05 0.0) (0.0005737782582 -2.499378827e-05 0.0) (0.0006087315479 -2.777800396e-05 0.0) (0.0006471892444 -3.049658389e-05 0.0) (0.0006890304192 -3.311773232e-05 0.0) (0.0007340923447 -3.56102085e-05 0.0) (0.0007821700754 -3.794109248e-05 0.0) (0.0008330136395 -4.007397964e-05 0.0) (0.0008863233456 -4.196745289e-05 0.0) (0.0009417438144 -4.35741649e-05 0.0) (0.0009988571709 -4.484007459e-05 0.0) (0.001057176134 -4.57044663e-05 0.0) (0.001116137634 -4.609984904e-05 0.0) (0.00117509669 -4.595195224e-05 0.0) (0.0012333205 -4.518068054e-05 0.0) (0.001289985097 -4.370545296e-05 0.0) (0.001344181582 -4.145832998e-05 0.0) (0.001394941261 -3.840592705e-05 0.0) (0.001441289233 -3.457876493e-05 0.0) (0.001482332562 -3.009977591e-05 0.0) (0.001517392401 -2.51970573e-05 0.0) (0.001546111192 -2.012355196e-05 0.0) (0.001568389658 -1.501981108e-05 0.0) (0.001584226023 -9.919976201e-06 0.0) (0.001593622838 -4.824507025e-06 0.0) (0.001596551231 2.596507311e-07 0.0) (0.001593071683 5.365201073e-06 0.0) (0.001583089272 1.049718623e-05 0.0) (0.001566609763 1.565302057e-05 0.0) (0.001543597533 2.083895461e-05 0.0) (0.001514018837 2.602976438e-05 0.0) (0.001477926091 3.108914881e-05 0.0) (0.001435633183 3.575397274e-05 0.0) (0.001387800856 3.976761581e-05 0.0) (0.001335350339 4.296431362e-05 0.0) (0.001279343769 4.526421486e-05 0.0) (0.001220898309 4.66543566e-05 0.0) (0.001161123125 4.716922136e-05 0.0) (0.001101073124 4.687633755e-05 0.0) (0.001041715665 4.586359853e-05 0.0) (0.000983911629 4.422641791e-05 0.0) (0.0009284116994 4.205585806e-05 0.0) (0.0008758659954 3.942918184e-05 0.0) (0.0008268434216 3.640352533e-05 0.0) (0.0007818569382 3.301224927e-05 0.0) (0.0007413920148 2.926305582e-05 0.0) (0.0007059366869 2.513727891e-05 0.0) (0.0006760119743 2.058967814e-05 0.0) (0.0006521991709 1.554732155e-05 0.0) (0.0006351529466 9.909357035e-06 0.0) (0.0006256757356 3.582875117e-06 0.0) (0.0006246166752 -3.477022008e-06 0.0) (0.0006329659054 -1.150255326e-05 0.0) (0.0006518360669 -2.050603259e-05 0.0) (0.000682256065 -3.044955688e-05 0.0) (0.0007251914195 -4.120792742e-05 0.0) (0.0007812966295 -5.23912535e-05 0.0) (0.0008505486174 -6.324011904e-05 0.0) (0.0009318193238 -7.259595626e-05 0.0) (0.001022420919 -7.888086869e-05 0.0) (0.001117682085 -8.021964387e-05 0.0) (0.001210736642 -7.475591838e-05 0.0) (0.001292803871 -6.126237039e-05 0.0) (0.001354347876 -4.005931755e-05 0.0) (0.001387810916 -1.45196957e-05 0.0) (0.001391068621 1.069789239e-05 0.0) (0.001365910687 3.338129021e-05 0.0) (0.001317411852 4.944855402e-05 0.0) (0.001255456776 5.639968524e-05 0.0) (0.001190366052 5.538519235e-05 0.0) (0.001130052752 4.870295314e-05 0.0) (0.00107960104 3.882802162e-05 0.0) (0.001041337048 2.803510007e-05 0.0) (0.001015274463 1.791535487e-05 0.0) (0.001000185868 9.047755396e-06 0.0) (0.0009946038546 1.631014952e-06 0.0) (0.0009966432577 -4.038134456e-06 0.0) (0.001004369778 -7.969775349e-06 0.0) (0.001015731724 -1.026214148e-05 0.0) (0.001028894554 -1.113159725e-05 0.0) (0.001042335098 -1.084751473e-05 0.0) (0.001054834448 -9.676886638e-06 0.0) (0.001065468357 -7.855466038e-06 0.0) (0.001073562701 -5.567661635e-06 0.0) (0.00107863272 -2.95592219e-06 0.0) (0.001080321543 -1.357885412e-07 0.0) (0.001078446616 2.817019717e-06 0.0) (0.001072827519 5.852099666e-06 0.0) (0.00106341587 8.895288405e-06 0.0) (0.001050213095 1.190518627e-05 0.0) (0.001033259683 1.485470596e-05 0.0) (0.001012642248 1.769804398e-05 0.0) (0.0009885352446 2.034356219e-05 0.0) (0.0009612452121 2.268772711e-05 0.0) (0.0009311872237 2.466361547e-05 0.0) (0.0008988299611 2.624159606e-05 0.0) (0.0008646621511 2.741566655e-05 0.0) (0.0008291716984 2.819852426e-05 0.0) (0.000792826253 2.861748935e-05 0.0) (0.0007560573914 2.870995541e-05 0.0) (0.0007192508116 2.851793978e-05 0.0) (0.000682743018 2.808327949e-05 0.0) (0.000646823089 2.744456117e-05 0.0) (0.0006117368527 2.663604687e-05 0.0) (0.0005776913849 2.568801891e-05 0.0) (0.0005448587081 2.462751545e-05 0.0) (0.0005133787555 2.347907417e-05 0.0) (0.0004833616405 2.226529036e-05 0.0) (0.0004548895455 2.100704147e-05 0.0) (0.0004280187524 1.972326129e-05 0.0) (0.0004027821585 1.843062574e-05 0.0) (0.000379192234 1.714326125e-05 0.0) (0.0003572442615 1.587266764e-05 0.0) (0.000336919581 1.462778768e-05 0.0) (0.0003181886673 1.341524601e-05 0.0) (0.0003010138662 1.223965448e-05 0.0) (0.0002853517538 1.110396308e-05 0.0) (0.0002711550485 1.00098027e-05 0.0) (0.0002583741523 8.957795359e-06 0.0) (0.0002469583055 7.947840074e-06 0.0) (0.0002368564399 6.979334742e-06 0.0) (0.0002280177455 6.051392859e-06 0.0) (0.0002203920194 5.16298565e-06 0.0) (0.0002139298064 4.313108271e-06 0.0) (0.0002085824033 3.500860716e-06 0.0) (0.0002043017683 2.725551681e-06 0.0) (0.0002010402734 1.98653734e-06 0.0) (0.0001987495225 1.282893831e-06 0.0) (0.0001973817158 6.148809369e-07 0.0) (0.0001968899725 -1.157657884e-08 0.0) (0.0001972163503 -5.983355196e-07 0.0) (0.000198316629 -1.147961511e-06 0.0) (0.0002001354964 -1.657975918e-06 0.0) (0.0002026184675 -2.126313408e-06 0.0) (0.0002057100653 -2.551993399e-06 0.0) (0.000209353985 -2.93471779e-06 0.0) (0.0002134941874 -3.275102829e-06 0.0) (0.0002180762725 -3.574863936e-06 0.0) (0.0002230492039 -3.837252636e-06 0.0) (0.0002283673795 -4.067212024e-06 0.0) (0.0002339930207 -4.271718382e-06 0.0) (0.0002398987205 -4.459729503e-06 0.0) (0.0002460700128 -4.642267637e-06 0.0) (0.0002525077082 -4.83201229e-06 0.0) (0.0002592298036 -5.043022824e-06 0.0) (0.0002662726821 -5.289946616e-06 0.0) (0.0002736914531 -5.587449101e-06 0.0) (0.0002815592657 -5.949207159e-06 0.0) (0.000289965602 -6.387307075e-06 0.0) (0.0002990135899 -6.911336775e-06 0.0) (0.0003088165429 -7.528069043e-06 0.0) (0.0003194939373 -8.240916553e-06 0.0) (0.0003311671379 -9.050069638e-06 0.0) (0.0003439551246 -9.9523677e-06 0.0) (0.0003579704861 -1.09418351e-05 0.0) (0.0003733158347 -1.200982281e-05 0.0) (0.0003900807969 -1.314574261e-05 0.0) (0.0004083395811 -1.433725634e-05 0.0) (0.0004281491406 -1.557099126e-05 0.0) (0.0004495478172 -1.683258178e-05 0.0) (0.0004725543736 -1.810720142e-05 0.0) (0.0004971672173 -1.937931275e-05 0.0) (0.0005233636543 -2.06328671e-05 0.0) (0.0005510988765 -2.185055888e-05 0.0) (0.0005803043405 -2.301337802e-05 0.0) (0.0006108850604 -2.409891165e-05 0.0) (0.000642714989 -2.507978076e-05 0.0) (0.0006756300079 -2.592130478e-05 0.0) (0.000709419069 -2.658106473e-05 0.0) (0.0007438156275 -2.700943773e-05 0.0) (0.0007784910511 -2.715265163e-05 0.0) (0.0008130529688 -2.695767505e-05 0.0) (0.0008470514083 -2.638006168e-05 0.0) (0.0008799949514 -2.539097886e-05 0.0) (0.0009113737622 -2.398263778e-05 0.0) (0.0009406867894 -2.217179082e-05 0.0) (0.0009674691259 -2.000436129e-05 0.0) (0.0009913313805 -1.756830348e-05 0.0) (0.001012019383 -1.499380509e-05 0.0) (0.001029443294 -1.240562946e-05 0.0) (0.001043640672 -9.891360686e-06 0.0) (0.001054742512 -7.52208003e-06 0.0) (0.001062955929 -5.343888844e-06 0.0) (0.001068525653 -3.364652474e-06 0.0) (0.001071676565 -1.548582436e-06 0.0) (0.001072555749 1.771732775e-07 0.0) (0.001071226911 1.927147241e-06 0.0) (0.00106758314 3.79615172e-06 0.0) (0.001061441591 5.857805803e-06 0.0) (0.001052537988 8.147236633e-06 0.0) (0.001040597913 1.065160373e-05 0.0) (0.001025390437 1.331731068e-05 0.0) (0.001006770638 1.605454364e-05 0.0) (0.0009847227336 1.872894739e-05 0.0) (0.0009594319496 2.115470441e-05 0.0) (0.000931308604 2.317606058e-05 0.0) (0.0009009009388 2.472441446e-05 0.0) (0.0008687859534 2.580636047e-05 0.0) (0.0008354993377 2.647382695e-05 0.0) (0.0008015038514 2.679414011e-05 0.0) (0.0007671862121 2.683076799e-05 0.0) (0.0007328676177 2.663661899e-05 0.0) (0.000698815549 2.6253241e-05 0.0) (0.0006652556042 2.571324837e-05 0.0) (0.000632378224 2.504239487e-05 0.0) (0.0006003464631 2.426269215e-05 0.0) (0.0005692961261 2.339280171e-05 0.0) (0.0005393430212 2.245055508e-05 0.0) (0.0005105773854 2.145091357e-05 0.0) (0.0004830761822 2.040969867e-05 0.0) (0.0004568886151 1.933861016e-05 0.0) (0.0004320605029 1.825293366e-05 0.0) (0.0004086011327 1.716050492e-05 0.0) (0.0003865345897 1.607777168e-05 0.0) (0.0003658270985 1.500628975e-05 0.0) (0.0003464967645 1.396690516e-05 0.0) (0.0003284551372 1.295016006e-05 0.0) (0.000311742922 1.198863127e-05 0.0) (0.0002961854582 1.105250548e-05 0.0) (0.000281901309 1.02015085e-05 0.0) (0.0002685541807 9.366388436e-06 0.0) (0.0002564539125 8.665317363e-06 0.0) (0.0002449324966 7.9517076e-06 0.0) (0.0002347315461 7.464521327e-06 0.0) (0.0002244767247 6.910215171e-06 0.0) (0.000215852544 6.767400237e-06 0.0) (0.0002059801948 6.486805778e-06 0.0) (0.000198550988 6.958336777e-06 0.0) (0.0001876032791 7.325671257e-06 0.0) (0.0001807252404 8.861885277e-06 0.0) (0.0001653782732 1.102204227e-05 0.0) (0.0001609566062 1.295182125e-05 0.0) (0.0005166209759 0.0001253915231 0.0) (0.0005221932469 0.0001831339274 0.0) (0.0005005085739 0.0001615534218 0.0) (0.0004581427033 0.0001279955925 0.0) (0.0004127005104 9.827270589e-05 0.0) (0.0003714412106 7.474100548e-05 0.0) (0.0003360064366 5.699439081e-05 0.0) (0.0003064206406 4.381078909e-05 0.0) (0.0002821256756 3.396502851e-05 0.0) (0.0002623742394 2.650227491e-05 0.0) (0.0002464344738 2.074262127e-05 0.0) (0.0002336689213 1.62149953e-05 0.0) (0.0002235477687 1.259417797e-05 0.0) (0.0002156385706 9.653682312e-06 0.0) (0.0002095901112 7.233638231e-06 0.0) (0.0002051166729 5.218888464e-06 0.0) (0.0002019845454 3.525107092e-06 0.0) (0.0002000010912 2.089146568e-06 0.0) (0.0001990066082 8.636613928e-07 0.0) (0.0001988681853 -1.879360321e-07 0.0) (0.0001994728041 -1.09629287e-06 0.0) (0.0002007253128 -1.884729077e-06 0.0) (0.0002025437629 -2.570807112e-06 0.0) (0.0002048582015 -3.169409335e-06 0.0) (0.00020760782 -3.692545757e-06 0.0) (0.0002107394085 -4.150117394e-06 0.0) (0.0002142060581 -4.550022779e-06 0.0) (0.0002179660264 -4.898795994e-06 0.0) (0.0002219817885 -5.20157857e-06 0.0) (0.0002262192261 -5.462598061e-06 0.0) (0.0002306469537 -5.685078992e-06 0.0) (0.0002352357339 -5.87162612e-06 0.0) (0.000239957995 -6.024114554e-06 0.0) (0.0002447874122 -6.144007561e-06 0.0) (0.0002496985718 -6.232246569e-06 0.0) (0.000254666683 -6.289520657e-06 0.0) (0.0002596673623 -6.316167165e-06 0.0) (0.000264676456 -6.312403335e-06 0.0) (0.0002696699289 -6.27824305e-06 0.0) (0.0002746237868 -6.213697688e-06 0.0) (0.0002795140604 -6.118711763e-06 0.0) (0.0002843168226 -5.993338689e-06 0.0) (0.0002890082648 -5.837696837e-06 0.0) (0.000293564807 -5.652125446e-06 0.0) (0.0002979632677 -5.437162301e-06 0.0) (0.0003021810708 -5.193685341e-06 0.0) (0.0003061965142 -4.922913522e-06 0.0) (0.