/*--------------------------------*- C++ -*----------------------------------*\
  =========                 |
  \\      /  F ield         | OpenFOAM: The Open Source CFD Toolbox
   \\    /   O peration     | Website:  https://openfoam.org
    \\  /    A nd           | Version:  7
     \\/     M anipulation  |
\*---------------------------------------------------------------------------*/
FoamFile
{
    version     2.0;
    format      ascii;
    class       volScalarField;
    location    "0";
    object      B;
}
// * * * * * * * * * * * * * * * * * * * * * * * * * * * * * * * * * * * * * //

dimensions      [0 -3 0 0 1 0 0];

internalField nonuniform List<scalar> 30439(0.1000029817 0.1000037646 0.1000039307 0.10000403640000001 0.1000040975 0.1000042116 0.100004393 0.1000045422 0.10000466849999999 0.10000477890000001 0.1000048737 0.1000049509 0.1000050155 0.10000506799999999 0.1000051139 0.1000051537 0.1000051837 0.10000520660000001 0.1000052278 0.1000052494 0.10000527190000001 0.1000052983 0.1000053336 0.1000053656 0.10000539409999999 0.1000054192 0.10000544169999999 0.1000054623 0.1000054806 0.1000054964 0.1000055096 0.1000055215 0.1000055378 0.1000055522 0.1000055645 0.10000557489999999 0.1000055832 0.1000055904 0.1000056006 0.1000056144 0.1000056277 0.10000564070000001 0.1000056531 0.1000056643 0.100005674 0.1000056817 0.1000056873 0.1000056905 0.1000056907 0.1000056876 0.100005682 0.1000056744 0.1000056641 0.100005658 0.100005649 0.1000056375 0.1000056241 0.1000056085 0.1000055896 0.1000055671 0.1000055407 0.1000055141 0.1000054926 0.1000054668 0.1000054365 0.100005402 0.10000536339999999 0.10000532 0.10000528139999999 0.10000525 0.1000052136 0.10000517560000001 0.1000051394 0.1000050972 0.1000050491 0.1000049969 0.10000493980000001 0.10000487620000001 0.1000048063 0.10000472560000001 0.1000046327 0.100004528 0.1000044045 0.1000042528 0.1000040886 0.10000390379999999 0.1000037839 0.10000369619999999 0.1000035317 0.10000279100000001 0.1000038694 0.1000042245 0.10000418479999999 0.10000418230000001 0.10000421079999999 0.10000423289999999 0.100004249 0.10000431979999999 0.10000445399999999 0.1000045666 0.1000046705 0.10000475919999999 0.1000048267 0.1000048841 0.1000049339 0.10000497739999999 0.1000050153 0.1000050504 0.1000051047 0.10000515589999999 0.1000052027 0.10000524420000001 0.1000052804 0.10000531150000001 0.100005338 0.100005361 0.1000053813 0.1000053994 0.1000054156 0.10000543009999999 0.1000054436 0.1000054601 0.100005476 0.1000054918 0.10000550670000001 0.1000055208 0.1000055345 0.10000554810000001 0.1000055611 0.1000055744 0.100005591 0.10000560559999999 0.1000056178 0.1000056276 0.10000563479999999 0.1000056393 0.10000564149999999 0.1000056411 0.1000056381 0.1000056324 0.1000056229 0.1000056164 0.1000056094 0.10000560030000001 0.10000559 0.1000055777 0.10000556329999999 0.1000055455 0.1000055229 0.10000549610000001 0.10000546569999999 0.100005437 0.1000054129 0.1000053852 0.1000053543 0.1000053203 0.1000052831 0.10000524189999999 0.1000051958 0.100005147 0.10000509070000001 0.1000050305 0.1000049838 0.10000494080000001 0.1000048917 0.1000048373 0.100004776 0.1000047082 0.1000046298 0.1000045408 0.10000444080000001 0.1000043241 0.1000041989 0.1000040676 0.10000398810000001 0.1000039612 0.10000393020000001 0.1000039233 0.1000039778 0.1000036418 0.1000040355 0.10000420789999999 0.1000042178 0.1000042201 0.10000424200000001 0.1000042569 0.1000042741 0.1000042984 0.1000043268 0.10000439150000001 0.10000448710000001 0.1000045783 0.1000046608 0.1000047361 0.1000048062 0.1000048714 0.1000049319 0.1000049889 0.10000504340000001 0.10000509440000001 0.1000051413 0.1000051836 0.1000052211 0.1000052537 0.1000052822 0.10000530690000001 0.1000053285 0.1000053551 0.10000538010000001 0.1000054025 0.10000542239999999 0.10000543969999999 0.1000054561 0.1000054733 0.1000054899 0.100005505 0.10000551910000001 0.1000055324 0.10000554510000001 0.1000055599 0.10000557589999999 0.1000055901 0.10000560210000001 0.1000056115 0.1000056184 0.1000056228 0.10000562489999999 0.10000562489999999 0.10000562229999999 0.1000056159 0.10000560630000001 0.1000055992 0.1000055908 0.1000055801 0.1000055689 0.1000055559 0.1000055401 0.10000552110000001 0.1000054982 0.1000054713 0.1000054406 0.1000054059 0.10000536709999999 0.10000532990000001 0.10000529779999999 0.1000052619 0.100005223 0.10000518109999999 0.1000051375 0.1000050881 0.1000050302 0.1000049699 0.1000049053 0.1000048362 0.10000476220000001 0.1000046835 0.10000460000000001 0.10000451199999999 0.1000044193 0.1000043229 0.10000422360000001 0.1000041222 0.100004055 0.1000040336 0.1000040132 0.1000039909 0.10000397650000001 0.1000039741 0.1000039778 0.100003801 0.1000041465 0.1000042326 0.1000042422 0.1000042557 0.10000426679999999 0.10000428219999999 0.10000429749999999 0.1000043184 0.10000434279999999 0.1000043736 0.1000044267 0.1000045122 0.10000459199999999 0.1000046659 0.1000047347 0.1000047986 0.10000485890000001 0.1000049157 0.10000496939999999 0.1000050202 0.10000506740000001 0.1000051104 0.1000051489 0.1000051903 0.10000523060000001 0.10000526679999999 0.1000052993 0.1000053283 0.10000535420000001 0.10000537720000001 0.1000053979 0.1000054167 0.10000543399999999 0.100005451 0.1000054675 0.1000054829 0.1000054974 0.1000055111 0.1000055242 0.10000554119999999 0.1000055568 0.1000055705 0.1000055822 0.1000055915 0.1000055982 0.1000056026 0.1000056045 0.10000560389999999 0.1000056005 0.1000055939 0.10000558429999999 0.1000055771 0.10000556840000001 0.10000555770000001 0.1000055455 0.1000055311 0.10000551399999999 0.10000549389999999 0.1000054704 0.10000544310000001 0.100005412 0.1000053769 0.1000053377 0.1000052947 0.1000052476 0.10000519559999999 0.1000051531 0.1000051129 0.1000050656 0.10000501099999999 0.10000495440000001 0.100004894 0.10000482969999999 0.1000047615 0.1000046888 0.1000046118 0.1000045306 0.1000044453 0.1000043564 0.1000042647 0.1000041715 0.1000041082 0.10000407900000001 0.1000040581 0.1000040408 0.1000040194 0.10000402159999999 0.10000400440000001 0.1000039909 0.1000039093 0.1000042134 0.1000042724 0.100004274 0.1000042876 0.10000427690000001 0.1000043023 0.1000043177 0.1000043358 0.1000043563 0.10000438069999999 0.10000441880000001 0.10000446210000001 0.1000045215 0.1000045841 0.10000464640000001 0.10000470789999999 0.1000047684 0.1000048286 0.1000048885 0.1000049472 0.1000050038 0.10000505729999999 0.10000510700000001 0.10000515230000001 0.10000519349999999 0.1000052305 0.1000052638 0.1000052937 0.1000053204 0.1000053442 0.1000053656 0.10000538510000001 0.10000540309999999 0.1000054202 0.1000054366 0.1000054521 0.10000546710000001 0.1000054821 0.10000550059999999 0.1000055176 0.1000055329 0.1000055464 0.10000555770000001 0.1000055666 0.1000055732 0.1000055773 0.1000055789 0.1000055778 0.10000557399999999 0.10000556719999999 0.1000055574 0.10000554699999999 0.1000055381 0.10000552700000001 0.1000055139 0.1000054984 0.10000548040000001 0.10000545940000001 0.1000054352 0.1000054073 0.1000053757 0.1000053402 0.10000530079999999 0.1000052574 0.10000520989999999 0.1000051639 0.10000511449999999 0.1000050562 0.1000049925 0.1000049259 0.1000048609 0.10000479620000001 0.10000473319999999 0.100004666 0.1000045949 0.10000452 0.1000044413 0.1000043591 0.10000427890000001 0.100004209 0.10000416349999999 0.1000041232 0.1000040996 0.1000040799 0.1000040686 0.1000040529 0.1000040446 0.1000040336 0.1000040286 0.1000039778 0.1000042541 0.1000043108 0.10000430719999999 0.1000043079 0.10000430639999999 0.1000043126 0.1000043302 0.10000434779999999 0.100004366 0.10000438760000001 0.1000044152 0.1000044558 0.100004499 0.1000045499 0.1000046098 0.1000046692 0.1000047285 0.10000478730000001 0.1000048454 0.1000049027 0.1000049583 0.1000050111 0.1000050605 0.1000051059 0.10000514729999999 0.1000051848 0.1000052188 0.1000052494 0.1000052768 0.10000530120000001 0.1000053231 0.10000534309999999 0.1000053615 0.1000053789 0.10000539550000001 0.1000054133 0.10000543410000001 0.1000054538 0.1000054722 0.10000548910000001 0.1000055042 0.10000551740000001 0.1000055283 0.1000055371 0.10000554340000001 0.1000055472 0.1000055485 0.10000554710000001 0.1000055429 0.1000055359 0.10000552580000001 0.1000055128 0.1000054972 0.1000054856 0.10000547169999999 0.1000054555 0.10000543669999999 0.100005415 0.1000053901 0.1000053616 0.1000053294 0.1000052936 0.1000052538 0.10000521030000001 0.100005166 0.100005122 0.10000506399999999 0.1000050036 0.10000494339999999 0.1000048813 0.1000048169 0.10000475 0.1000046811 0.10000461070000001 0.1000045392 0.1000044672 0.1000043954 0.1000043246 0.10000425909999999 0.1000042117 0.10000416919999999 0.1000041372 0.10000411629999999 0.1000040984 0.1000040739 0.1000040792 0.1000040639 0.1000040666 0.1000040679 0.1000040203 0.10000427749999999 0.1000043407 0.1000043316 0.10000432690000001 0.1000043374 0.1000043261 0.10000434279999999 0.1000043551 0.1000043713 0.10000439080000001 0.10000441339999999 0.10000444439999999 0.1000044856 0.100004529 0.1000045745 0.1000046218 0.1000046792 0.1000047364 0.1000047934 0.1000048495 0.1000049039 0.10000495599999999 0.1000050048 0.1000050501 0.1000050917 0.1000051295 0.10000516400000001 0.1000051951 0.10000522290000001 0.1000052478 0.1000052701 0.10000529050000001 0.1000053137 0.1000053367 0.100005359 0.1000053806 0.1000054013 0.1000054209 0.1000054393 0.10000545599999999 0.1000054709 0.1000054838 0.1000054946 0.1000055031 0.1000055091 0.10000551270000001 0.1000055137 0.10000551199999999 0.10000550750000001 0.1000055002 0.1000054899 0.1000054768 0.1000054606 0.10000544169999999 0.1000054199 0.1000054017 0.10000538210000001 0.10000535969999999 0.100005334 0.10000530490000001 0.1000052723 0.100005236 0.100005196 0.100005153 0.1000051115 0.10000505870000001 0.1000050021 0.10000494639999999 0.1000048876 0.1000048264 0.10000476309999999 0.1000046977 0.1000046307 0.10000456229999999 0.1000044932 0.1000044239 0.1000043551 0.1000043026 0.1000042543 0.100004208 0.1000041705 0.10000414619999999 0.1000041226 0.10000410600000001 0.100004084 0.10000408870000001 0.10000408570000001 0.10000409199999999 0.1000041003 0.10000404469999999 0.10000428930000001 0.1000043621 0.10000434979999999 0.1000043433 0.1000043444 0.1000043466 0.1000043504 0.1000043587 0.1000043726 0.1000043899 0.1000044106 0.1000044343 0.1000044679 0.10000450940000001 0.100004553 0.1000045982 0.1000046451 0.1000046933 0.1000047425 0.1000047925 0.1000048427 0.1000048919 0.1000049399 0.1000049849 0.1000050273 0.10000506740000001 0.10000510500000001 0.1000051398 0.1000051717 0.1000052011 0.1000052281 0.10000525319999999 0.100005277 0.10000529990000001 0.10000532220000001 0.1000053436 0.1000053642 0.10000538379999999 0.100005402 0.10000541859999999 0.1000054333 0.100005446 0.1000054566 0.1000054648 0.1000054706 0.1000054739 0.10000547470000001 0.10000547270000001 0.100005468 0.10000546040000001 0.10000545 0.10000543669999999 0.10000542039999999 0.1000054014 0.1000053796 0.100005355 0.1000053276 0.1000052974 0.1000052665 0.1000052368 0.1000052038 0.1000051673 0.1000051276 0.100005086 0.10000503999999999 0.1000049866 0.100004934 0.1000048787 0.1000048209 0.1000047609 0.1000046988 0.10000463500000001 0.10000456989999999 0.1000045037 0.10000444639999999 0.10000439180000001 0.1000043392 0.1000042896 0.1000042452 0.1000041997 0.10000417340000001 0.10000415030000001 0.1000041313 0.1000041108 0.1000041108 0.1000040996 0.10000410300000001 0.1000041114 0.1000041228 0.1000040584 0.10000429320000001 0.1000043739 0.1000043596 0.10000435120000001 0.1000043483 0.1000043521 0.10000434879999999 0.1000043577 0.1000043694 0.100004385 0.1000044036 0.1000044253 0.10000445009999999 0.1000044847 0.10000452659999999 0.1000045705 0.1000046158 0.1000046625 0.1000047106 0.10000475930000001 0.1000048081 0.1000048561 0.1000049025 0.1000049469 0.1000049889 0.1000050285 0.1000050656 0.10000510010000001 0.1000051318 0.10000516079999999 0.1000051876 0.1000052125 0.10000523620000001 0.1000052591 0.1000052812 0.10000530249999999 0.1000053231 0.10000534250000001 0.1000053605 0.1000053769 0.1000053915 0.10000540399999999 0.1000054143 0.1000054222 0.1000054278 0.1000054309 0.1000054313 0.10000542909999999 0.1000054241 0.10000541639999999 0.1000054058 0.10000539239999999 0.10000537620000001 0.1000053572 0.10000533539999999 0.1000053109 0.10000528360000001 0.10000525360000001 0.10000522090000001 0.1000051856 0.1000051475 0.10000510659999999 0.1000050632 0.1000050214 0.10000496869999999 0.1000049176 0.1000048649 0.1000048108 0.10000475560000001 0.10000469960000001 0.10000464319999999 0.10000458670000001 0.10000453050000001 0.1000044751 0.10000442080000001 0.10000436809999999 0.1000043173 0.1000042686 0.1000042263 0.1000041968 0.1000041721 0.10000415089999999 0.1000041365 0.1000041218 0.10000411919999999 0.1000041114 0.1000041142 0.10000412330000001 0.1000041355 0.1000040645 0.10000429 0.1000043746 0.10000436049999999 0.1000043511 0.10000434620000001 0.1000043454 0.1000043457 0.1000043515 0.10000436149999999 0.10000437520000001 0.1000043922 0.1000044125 0.1000044346 0.1000044634 0.1000044946 0.10000453699999999 0.1000045812 0.10000462689999999 0.10000467360000001 0.1000047211 0.10000476879999999 0.1000048158 0.10000486139999999 0.10000490499999999 0.1000049463 0.1000049853 0.100005022 0.1000050561 0.1000050875 0.10000511629999999 0.1000051428 0.10000516759999999 0.1000051913 0.1000052141 0.10000523609999999 0.1000052573 0.1000052777 0.100005297 0.1000053148 0.10000533090000001 0.1000053452 0.1000053575 0.10000536750000001 0.10000537520000001 0.1000053805 0.1000053832 0.1000053834 0.100005381 0.1000053758 0.1000053679 0.1000053572 0.1000053438 0.1000053275 0.10000530860000001 0.1000052868 0.1000052624 0.10000523520000001 0.1000052054 0.100005173 0.10000513800000001 0.1000051002 0.10000505970000001 0.10000501769999999 0.1000049733 0.10000492329999999 0.1000048733 0.1000048217 0.10000476879999999 0.10000471479999999 0.1000046601 0.1000046051 0.1000045501 0.10000449559999999 0.10000444180000001 0.10000438939999999 0.10000433850000001 0.10000429020000001 0.10000424490000001 0.1000042184 0.1000041902 0.1000041664 0.1000041467 0.10000413000000001 0.1000041232 0.1000041167 0.1000041138 0.1000041177 0.10000412730000001 0.1000041395 0.1000040631 0.10000427890000001 0.10000436650000001 0.1000043531 0.10000434320000001 0.1000043373 0.1000043349 0.10000433550000001 0.10000434 0.1000043484 0.10000436049999999 0.1000043765 0.1000043963 0.1000044152 0.10000444680000001 0.1000044735 0.10000450350000001 0.10000454110000001 0.1000045855 0.1000046314 0.10000467789999999 0.10000472460000001 0.1000047707 0.1000048154 0.1000048583 0.10000489909999999 0.1000049376 0.1000049739 0.1000050076 0.1000050387 0.10000506719999999 0.1000050936 0.1000051185 0.1000051421 0.1000051648 0.1000051867 0.10000520789999999 0.1000052281 0.100005247 0.1000052646 0.1000052804 0.1000052944 0.1000053063 0.100005316 0.1000053234 0.1000053283 0.10000533080000001 0.10000533069999999 0.1000053281 0.1000053227 0.1000053147 0.10000530390000001 0.1000052904 0.1000052741 0.10000525519999999 0.1000052335 0.10000520909999999 0.100005182 0.10000515230000001 0.10000512 0.1000050851 0.10000504789999999 0.10000500870000001 0.1000049686 0.1000049195 0.1000048726 0.10000482349999999 0.10000477290000001 0.1000047211 0.1000046683 0.1000046149 0.10000456129999999 0.1000045077 0.1000044547 0.1000044025 0.1000043516 0.10000430249999999 0.10000426389999999 0.1000042367 0.1000042042 0.100004178 0.1000041557 0.1000041372 0.1000041227 0.100004114 0.1000041092 0.10000410859999999 0.1000041135 0.1000041234 0.1000041352 0.1000040546 0.1000042615 0.10000435079999999 0.1000043382 0.1000043283 0.10000432179999999 0.10000431879999999 0.100004319 0.1000043229 0.1000043302 0.100004341 0.10000435569999999 0.1000043741 0.1000043999 0.1000044238 0.1000044487 0.10000447840000001 0.1000045096 0.10000454240000001 0.1000045836 0.1000046292 0.100004675 0.1000047203 0.1000047644 0.1000048067 0.10000484679999999 0.10000488490000001 0.10000492080000001 0.1000049542 0.10000498499999999 0.1000050135 0.1000050399 0.10000506470000001 0.1000050884 0.10000511100000001 0.1000051329 0.10000515389999999 0.1000051738 0.1000051924 0.1000052096 0.1000052251 0.1000052387 0.10000525019999999 0.1000052595 0.1000052666 0.10000527120000001 0.1000052733 0.100005273 0.10000527000000001 0.1000052645 0.1000052563 0.1000052454 0.1000052319 0.1000052156 0.1000051967 0.1000051749 0.1000051505 0.1000051234 0.1000050937 0.1000050614 0.10000502659999999 0.1000049896 0.10000495 0.1000049086 0.1000048623 0.100004816 0.10000476800000001 0.1000047184 0.10000466760000001 0.100004616 0.1000045638 0.1000045115 0.1000044593 0.1000044076 0.100004357 0.10000430919999999 0.1000042761 0.1000042436 0.1000042164 0.1000041834 0.1000041603 0.10000413970000001 0.1000041224 0.1000041092 0.1000041004 0.1000040962 0.1000040966 0.1000041021 0.100004112 0.10000412330000001 0.1000040396 0.10000423779999999 0.10000432869999999 0.1000043163 0.10000430649999999 0.1000043001 0.10000429690000001 0.100004297 0.1000043004 0.1000043068 0.100004317 0.1000043306 0.1000043487 0.1000043766 0.1000043891 0.1000044206 0.1000044496 0.10000447999999999 0.10000451199999999 0.1000045454 0.1000045798 0.10000462 0.10000466449999999 0.10000470789999999 0.1000047496 0.1000047894 0.100004827 0.10000486260000001 0.1000048957 0.1000049264 0.1000049548 0.10000498129999999 0.1000050062 0.1000050299 0.10000505259999999 0.1000050743 0.100005095 0.1000051146 0.1000051329 0.1000051497 0.1000051647 0.10000517789999999 0.10000518900000001 0.1000051978 0.1000052045 0.1000052087 0.1000052105 0.1000052098 0.1000052067 0.1000052009 0.10000519259999999 0.1000051816 0.100005168 0.1000051517 0.10000513259999999 0.1000051109 0.1000050864 0.1000050592 0.1000050294 0.100004997 0.10000496240000001 0.10000492509999999 0.100004887 0.1000048424 0.10000479920000001 0.1000047538 0.1000047066 0.10000465789999999 0.1000046082 0.1000045576 0.1000045066 0.1000044556 0.10000440479999999 0.1000043546 0.1000043175 0.1000042824 0.10000424990000001 0.10000421759999999 0.1000041882 0.10000416200000001 0.1000041386 0.1000041187 0.1000041023 0.1000040898 0.1000040814 0.1000040775 0.1000040782 0.1000040838 0.1000040935 0.1000041042 0.1000040183 0.10000420689999999 0.1000042994 0.1000042877 0.1000042784 0.1000042722 0.1000042691 0.1000042692 0.1000042723 0.10000427849999999 0.10000428820000001 0.10000430149999999 0.1000043193 0.1000043376 0.10000435849999999 0.10000438839999999 0.10000441680000001 0.10000444680000001 0.1000044782 0.1000045108 0.1000045445 0.1000045789 0.10000461329999999 0.10000464719999999 0.1000046872 0.1000047264 0.1000047637 0.10000479890000001 0.10000483190000001 0.10000486260000001 0.100004891 0.1000049176 0.1000049426 0.10000496639999999 0.10000498899999999 0.1000050106 0.100005031 0.1000050503 0.1000050682 0.1000050845 0.10000509899999999 0.10000511170000001 0.10000512230000001 0.1000051307 0.1000051369 0.10000514070000001 0.1000051421 0.1000051412 0.10000513770000001 0.1000051317 0.10000512319999999 0.1000051121 0.1000050984 0.10000508200000001 0.1000050629 0.1000050411 0.10000501640000001 0.10000498899999999 0.10000495910000001 0.1000049268 0.1000048919 0.10000485490000001 0.10000481909999999 0.100004776 0.10000473089999999 0.10000468579999999 0.1000046392 0.10000459140000001 0.10000454269999999 0.1000044933 0.1000044436 0.10000439750000001 0.10000435880000001 0.1000043214 0.10000428530000001 0.10000425090000001 0.1000042178 0.1000041881 0.1000041581 0.1000041345 0.1000041118 0.1000040926 0.10000407669999999 0.1000040647 0.1000040566 0.1000040529 0.1000040535 0.1000040589 0.10000406799999999 0.1000040781 0.1000039905 0.1000041698 0.1000042631 0.1000042524 0.1000042438 0.1000042382 0.1000042354 0.1000042357 0.10000423879999999 0.100004245 0.1000042545 0.1000042674 0.1000042834 0.10000430069999999 0.1000043292 0.100004352 0.1000043802 0.10000440969999999 0.1000044405 0.1000044727 0.1000045059 0.1000045396 0.1000045735 0.1000046069 0.1000046394 0.1000046709 0.10000470119999999 0.1000047304 0.100004763 0.1000047936 0.1000048221 0.1000048487 0.10000487379999999 0.10000489750000001 0.10000492 0.10000494139999999 0.1000049615 0.10000498040000001 0.10000499780000001 0.1000050136 0.10000502759999999 0.1000050397 0.1000050498 0.1000050578 0.1000050635 0.1000050669 0.1000050679 0.1000050666 0.1000050629 0.10000505670000001 0.10000504800000001 0.1000050368 0.100005023 0.10000500650000001 0.1000049873 0.1000049652 0.1000049403 0.10000491280000001 0.10000488279999999 0.1000048503 0.10000481530000001 0.10000477819999999 0.1000047384 0.1000047003 0.1000046554 0.10000461129999999 0.1000045658 0.10000451910000001 0.10000447639999999 0.10000443669999999 0.1000043973 0.1000043586 0.10000432079999999 0.1000042841 0.1000042488 0.1000042152 0.1000041832 0.10000415330000001 0.1000041247 0.1000041013 0.1000040798 0.1000040612 0.1000040458 0.1000040341 0.1000040261 0.1000040223 0.10000402270000001 0.1000040276 0.1000040359 0.1000040452 0.1000039563 0.1000041427 0.1000042203 0.1000042107 0.100004203 0.1000041981 0.100004196 0.10000419660000001 0.1000042 0.10000420630000001 0.1000042158 0.1000042287 0.1000042446 0.10000426389999999 0.1000042887 0.1000043128 0.1000043399 0.1000043689 0.10000439920000001 0.1000044309 0.1000044636 0.1000044969 0.1000045304 0.10000456340000001 0.1000045955 0.1000046266 0.1000046567 0.1000046857 0.1000047133 0.1000047394 0.1000047641 0.1000047875 0.1000048098 0.1000048311 0.1000048515 0.100004871 0.10000488960000001 0.100004907 0.10000492309999999 0.10000493769999999 0.100004951 0.1000049626 0.1000049721 0.10000497950000001 0.1000049847 0.1000049876 0.1000049883 0.1000049866 0.1000049826 0.1000049761 0.1000049673 0.1000049559 0.1000049419 0.10000492529999999 0.1000049058 0.1000048835 0.1000048585 0.10000483090000001 0.1000048007 0.1000047681 0.10000473330000001 0.1000046963 0.1000046552 0.10000462019999999 0.1000045848 0.1000045476 0.1000045093 0.10000447039999999 0.1000044313 0.1000043923 0.10000435369999999 0.1000043157 0.10000427860000001 0.1000042427 0.1000042082 0.10000417530000001 0.1000041441 0.100004115 0.10000408799999999 0.1000040642 0.10000404300000001 0.10000402480000001 0.1000040096 0.100003998 0.10000399 0.10000398599999999 0.10000398599999999 0.1000039902 0.1000039975 0.1000040056 0.100003931 0.1000041121 0.1000041815 0.100004169 0.1000041574 0.1000041524 0.100004151 0.10000415210000001 0.10000415600000001 0.10000416259999999 0.10000417229999999 0.1000041851 0.10000420119999999 0.10000422070000001 0.1000042436 0.1000042685 0.10000429549999999 0.100004324 0.100004354 0.1000043853 0.1000044177 0.1000044507 0.1000044838 0.1000045165 0.1000045484 0.1000045793 0.1000046091 0.100004638 0.10000466559999999 0.1000046918 0.1000047166 0.1000047401 0.1000047624 0.1000047837 0.1000048041 0.1000048234 0.1000048416 0.1000048586 0.1000048743 0.10000488839999999 0.1000049007 0.1000049112 0.1000049196 0.1000049259 0.10000492999999999 0.1000049318 0.10000493120000001 0.1000049284 0.1000049232 0.1000049156 0.1000049057 0.10000489350000001 0.10000487879999999 0.10000486149999999 0.1000048418 0.10000481950000001 0.1000047949 0.10000476800000001 0.1000047391 0.1000047085 0.10000467619999999 0.1000046425 0.1000046062 0.1000045688 0.1000045342 0.1000044971 0.1000044592 0.10000442080000001 0.1000043824 0.100004344 0.1000043061 0.10000426879999999 0.1000042324 0.10000419719999999 0.1000041634 0.1000041312 0.1000041007 0.1000040722 0.100004046 0.1000040224 0.10000400139999999 0.10000398340000001 0.10000396839999999 0.1000039567 0.10000394840000001 0.10000394409999999 0.1000039437 0.1000039472 0.1000039569 0.100003966 0.1000039029 0.10000407659999999 0.1000041465 0.1000041345 0.1000041232 0.1000041134 0.1000041051 0.1000041025 0.1000041068 0.1000041139 0.10000412389999999 0.100004137 0.1000041532 0.10000417260000001 0.10000419519999999 0.10000422 0.10000424690000001 0.10000427519999999 0.10000430490000001 0.1000043359 0.100004368 0.10000440079999999 0.1000044336 0.10000446610000001 0.10000449780000001 0.1000045286 0.1000045584 0.1000045872 0.1000046149 0.1000046412 0.1000046661 0.1000046898 0.1000047122 0.1000047335 0.1000047537 0.10000477290000001 0.10000479079999999 0.10000480749999999 0.1000048227 0.1000048363 0.1000048481 0.1000048581 0.100004866 0.1000048719 0.1000048756 0.10000487699999999 0.10000487620000001 0.10000487320000001 0.10000486780000001 0.1000048602 0.10000485020000001 0.100004838 0.10000482320000001 0.100004806 0.10000478630000001 0.100004764 0.1000047392 0.1000047123 0.1000046834 0.1000046528 0.1000046208 0.1000045874 0.1000045529 0.1000045162 0.1000044802 0.100004443 0.1000044054 0.10000436750000001 0.1000043296 0.10000429179999999 0.1000042545 0.10000421790000001 0.1000041822 0.1000041476 0.10000411440000001 0.10000408270000001 0.1000040528 0.1000040249 0.1000039992 0.1000039758 0.10000395509999999 0.10000393710000001 0.100003922 0.1000039102 0.1000039017 0.1000039003 0.1000039063 0.100003915 0.10000392509999999 0.10000393379999999 0.1000038703 0.1000040368 0.10000410700000001 0.1000040954 0.1000040846 0.1000040751 0.10000406710000001 0.1000040609 0.10000405650000001 0.10000406040000001 0.1000040708 0.1000040842 0.1000041007 0.1000041202 0.1000041426 0.1000041675 0.1000041942 0.1000042224 0.100004252 0.1000042828 0.1000043147 0.10000434720000001 0.10000437990000001 0.1000044123 0.1000044439 0.1000044746 0.10000450439999999 0.10000453329999999 0.10000456099999999 0.1000045874 0.10000461249999999 0.10000463629999999 0.1000046588 0.1000046802 0.1000047003 0.1000047192 0.10000473689999999 0.10000475319999999 0.10000476800000001 0.1000047811 0.1000047925 0.100004802 0.10000480950000001 0.1000048149 0.10000481820000001 0.1000048193 0.10000481820000001 0.1000048149 0.10000480939999999 0.1000048016 0.1000047916 0.10000477919999999 0.1000047644 0.1000047472 0.1000047273 0.10000470489999999 0.10000468009999999 0.10000465310000001 0.1000046242 0.1000045936 0.1000045616 0.1000045279 0.10000449380000001 0.10000445820000001 0.10000442209999999 0.1000043851 0.1000043479 0.1000043104 0.10000427290000001 0.1000042357 0.100004199 0.10000416300000001 0.1000041278 0.1000040938 0.1000040612 0.10000403 0.1000040006 0.1000039731 0.1000039477 0.1000039246 0.100003904 0.100003886 0.1000038709 0.1000038611 0.1000038617 0.100003865 0.100003871 0.1000038796 0.10000388950000001 0.10000389909999999 0.1000038328 0.10000399269999999 0.10000406299999999 0.100004052 0.10000404169999999 0.1000040326 0.100004025 0.100004019 0.1000040149 0.1000040128 0.1000040133 0.100004027 0.10000404369999999 0.1000040635 0.10000408599999999 0.1000041108 0.10000413749999999 0.10000416560000001 0.100004195 0.1000042258 0.10000425760000001 0.10000429 0.1000043226 0.10000435490000001 0.10000438639999999 0.10000441709999999 0.1000044469 0.1000044759 0.1000045038 0.1000045304 0.1000045556 0.1000045795 0.1000046022 0.1000046235 0.10000464360000001 0.1000046623 0.1000046798 0.10000469570000001 0.1000047101 0.1000047228 0.1000047338 0.10000474279999999 0.1000047498 0.1000047548 0.1000047577 0.1000047585 0.100004757 0.1000047535 0.10000474770000001 0.10000473979999999 0.10000472960000001 0.1000047171 0.10000470219999999 0.1000046848 0.1000046648 0.10000464229999999 0.10000461740000001 0.10000459029999999 0.10000456129999999 0.1000045306 0.1000044983 0.10000446469999999 0.10000443110000001 0.1000043962 0.10000436 0.1000043234 0.1000042865 0.1000042494 0.1000042125 0.1000041758 0.1000041396 0.1000041041 0.1000040695 0.10000403599999999 0.1000040038 0.1000039732 0.1000039442 0.100003917 0.1000038919 0.100003869 0.1000038483 0.1000038304 0.1000038236 0.1000038217 0.1000038223 0.10000382549999999 0.1000038313 0.1000038398 0.10000384979999999 0.10000386 0.1000037906 0.1000039449 0.1000040148 0.10000400429999999 0.10000399459999999 0.10000398599999999 0.1000039788 0.1000039732 0.10000396939999999 0.1000039676 0.1000039681 0.1000039712 0.1000039826 0.10000400250000001 0.1000040252 0.1000040501 0.10000407680000001 0.1000041049 0.10000413429999999 0.100004165 0.10000419660000001 0.100004229 0.1000042616 0.10000429379999999 0.1000043254 0.1000043561 0.1000043861 0.1000044152 0.1000044432 0.1000044699 0.1000044953 0.1000045194 0.10000454199999999 0.10000456340000001 0.1000045834 0.10000460200000001 0.10000461919999999 0.1000046348 0.10000464889999999 0.1000046612 0.1000046717 0.10000468030000001 0.10000468690000001 0.10000469149999999 0.100004694 0.1000046944 0.10000469259999999 0.1000046888 0.1000046828 0.10000467460000001 0.1000046642 0.1000046516 0.10000463659999999 0.100004619 0.10000459889999999 0.1000045762 0.1000045511 0.1000045239 0.10000449469999999 0.100004464 0.1000044318 0.1000043988 0.100004365 0.1000043304 0.10000429420000001 0.1000042578 0.1000042213 0.1000041847 0.1000041482 0.100004112 0.1000040763 0.1000040413 0.1000040072 0.1000039742 0.1000039425 0.1000039123 0.1000038836 0.1000038567 0.1000038318 0.100003809 0.10000379089999999 0.1000037845 0.1000037803 0.10000377839999999 0.1000037789 0.1000037819 0.1000037875 0.1000037956 0.1000038057 0.1000038159 0.1000037451 0.10000389280000001 0.1000039623 0.1000039525 0.10000394339999999 0.1000039353 0.1000039287 0.10000392350000001 0.10000392009999999 0.1000039186 0.1000039194 0.1000039227 0.1000039287 0.1000039376 0.1000039603 0.10000398540000001 0.1000040122 0.1000040403 0.1000040697 0.1000041004 0.1000041321 0.1000041644 0.100004197 0.10000422919999999 0.10000426089999999 0.1000042917 0.1000043217 0.1000043509 0.1000043791 0.100004406 0.1000044315 0.1000044557 0.10000447840000001 0.10000449980000001 0.10000451969999999 0.1000045382 0.1000045551 0.1000045705 0.1000045842 0.1000045961 0.1000046062 0.1000046144 0.1000046206 0.1000046248 0.10000462689999999 0.10000462689999999 0.10000462489999999 0.1000046207 0.1000046144 0.1000046061 0.1000045955 0.10000458270000001 0.10000456740000001 0.10000454969999999 0.1000045294 0.1000045066 0.1000044813 0.1000044539 0.1000044247 0.1000043939 0.1000043619 0.10000432890000001 0.100004295 0.1000042604 0.1000042244 0.1000041885 0.1000041524 0.10000411619999999 0.100004