/*--------------------------------*- C++ -*----------------------------------*\
  =========                 |
  \\      /  F ield         | OpenFOAM: The Open Source CFD Toolbox
   \\    /   O peration     | Website:  https://openfoam.org
    \\  /    A nd           | Version:  7
     \\/     M anipulation  |
\*---------------------------------------------------------------------------*/
FoamFile
{
    version     2.0;
    format      ascii;
    class       surfaceScalarField;
    location    "0";
    object      phi;
}
// * * * * * * * * * * * * * * * * * * * * * * * * * * * * * * * * * * * * * //

dimensions      [0 3 -1 0 0 0 0];

internalField nonuniform List<scalar> 59833(2.459913819e-15 6.984532747e-15 2.398772221e-15 9.505588154e-15 1.998758319e-15 9.844458471e-15 1.616721885e-15 9.826482611e-15 1.310582186e-15 9.750585604e-15 1.081629055e-15 9.67339942e-15 9.094545525e-16 9.616622235e-15 7.779652783e-16 9.575934999e-15 6.737145773e-16 9.548698355e-15 5.885025188e-16 9.529657929e-15 5.173584559e-16 9.515591527e-15 4.570835268e-16 9.504720787e-15 4.055077804e-16 9.49602249e-15 3.6107316e-16 9.488880583e-15 3.22606685e-16 9.482912639e-15 2.891824879e-16 9.477870346e-15 2.60044948e-16 9.47358395e-15 2.345608662e-16 9.469930261e-15 2.121915193e-16 9.466814889e-15 1.924764342e-16 9.464161299e-15 1.750181503e-16 9.461903808e-15 1.594776651e-16 9.459986304e-15 1.455640764e-16 9.458358895e-15 1.330316743e-16 9.45697819e-15 1.216711434e-16 9.455805671e-15 1.113082182e-16 9.45480866e-15 1.017948003e-16 9.453958416e-15 9.300880758e-17 9.453231409e-15 8.48463907e-17 9.452607317e-15 7.722181908e-17 9.452069747e-15 7.006165788e-17 9.451604879e-15 6.330494284e-17 9.451201755e-15 5.689851643e-17 9.450851307e-15 5.079749034e-17 9.450546212e-15 4.4962027e-17 9.450280521e-15 3.935772174e-17 9.450049597e-15 3.395340204e-17 9.449849551e-15 2.872132364e-17 9.449677394e-15 2.363587454e-17 9.449530701e-15 1.867327692e-17 9.449407757e-15 1.38103898e-17 9.449307911e-15 9.024355937e-18 9.449230916e-15 4.301043849e-18 9.4491682e-15 -3.72870613e-19 9.449118499e-15 -5.003729348e-18 9.449075511e-15 -9.6313176e-18 9.449072022e-15 -1.427706417e-17 9.449090396e-15 -1.896535885e-17 9.449132641e-15 -2.370809944e-17 9.449187406e-15 -2.851586384e-17 9.449252131e-15 -3.340691306e-17 9.449336004e-15 -3.840573965e-17 9.449443286e-15 -4.353537862e-17 9.449574562e-15 -4.882181207e-17 9.449730857e-15 -5.429150467e-17 9.449914768e-15 -5.997618989e-17 9.450128944e-15 -6.590902155e-17 9.450377618e-15 -7.213021898e-17 9.450665277e-15 -7.86835788e-17 9.450998204e-15 -8.562301602e-17 9.451383471e-15 -9.3008734e-17 9.451830513e-15 -1.009147881e-16 9.452350213e-15 -1.094263496e-16 9.452956702e-15 -1.186481081e-16 9.453666161e-15 -1.287021378e-16 9.454499165e-15 -1.397368836e-16 9.455479358e-15 -1.519271195e-16 9.45663546e-15 -1.654825373e-16 9.458000254e-15 -1.806498836e-16 9.459612292e-15 -1.977203275e-16 9.461515625e-15 -2.170350765e-16 9.463759631e-15 -2.389909396e-16 9.466401462e-15 -2.640521061e-16 9.469506136e-15 -2.927572141e-16 9.473151156e-15 -3.257432556e-16 9.477430862e-15 -3.63766169e-16 9.482469265e-15 -4.077566807e-16 9.488435167e-15 -4.588901812e-16 9.495579982e-15 -5.187303094e-16 9.504285501e-15 -5.894558003e-16 9.515171362e-15 -6.742760006e-16 9.529265417e-15 -7.781867037e-16 9.548355313e-15 -9.094261282e-16 9.575685468e-15 -1.081502914e-15 9.61652106e-15 -1.310372745e-15 9.673315273e-15 -1.616482635e-15 9.750553881e-15 -1.998495367e-15 9.826458772e-15 -2.398552562e-15 9.844503424e-15 -2.459821515e-15 9.505715825e-15 6.984624401e-15 2.186139232e-15 4.798394025e-15 3.223899146e-15 8.467829917e-15 3.354720458e-15 9.713636361e-15 3.11402018e-15 1.006718317e-14 2.790454848e-15 1.007415115e-14 2.47070245e-15 9.993153893e-15 2.18328511e-15 9.904040593e-15 1.933361478e-15 9.82586042e-15 1.715919268e-15 9.766142038e-15 1.52631478e-15 9.719264077e-15 1.360515457e-15 9.681392862e-15 1.215170451e-15 9.650067617e-15 1.087515949e-15 9.623679134e-15 9.752472186e-16 9.601151293e-15 8.764102357e-16 9.581752153e-15 7.893149775e-16 9.564968061e-15 7.124782915e-16 9.550422973e-15 6.445855847e-16 9.537825657e-15 5.844664196e-16 9.526936578e-15 5.310805913e-16 9.517549332e-15 4.835067644e-16 9.509479638e-15 4.409352611e-16 9.502560038e-15 4.02658367e-16 9.496637521e-15 3.680642769e-16 9.49157433e-15 3.366256795e-16 9.487246018e-15 3.078928013e-16 9.483543181e-15 2.814823459e-16 9.480370256e-15 2.570700034e-16 9.47764516e-15 2.343803562e-16 9.475298028e-15 2.131807334e-16 9.473270452e-15 1.932728244e-16 9.471513648e-15 1.74488039e-16 9.469987536e-15 1.566810236e-16 9.468659248e-15 1.397264696e-16 9.467501862e-15 1.235145526e-16 9.466493526e-15 1.079487591e-16 9.4656166e-15 9.294280463e-17 9.464856704e-15 7.841912423e-17 9.464202293e-15 6.430695239e-17 9.463644012e-15 5.054128462e-17 9.463174432e-15 3.70624668e-17 9.462787623e-15 2.38160239e-17 9.46247807e-15 1.07464046e-17 9.462238422e-15 -2.203956518e-18 9.462069245e-15 -1.511143263e-17 9.461983357e-15 -2.799889824e-17 9.461959745e-15 -4.090502608e-17 9.46199683e-15 -5.388090159e-17 9.462108711e-15 -6.698982398e-17 9.46229671e-15 -8.029057638e-17 9.462553246e-15 -9.383742964e-17 9.462883441e-15 -1.076882019e-16 9.463294464e-15 -1.219056765e-16 9.463792684e-15 -1.365596313e-16 9.464385278e-15 -1.517259212e-16 9.465081709e-15 -1.674901819e-16 9.465893473e-15 -1.83947389e-16 9.46683531e-15 -2.012068796e-16 9.467924975e-15 -2.193929126e-16 9.469184745e-15 -2.386509199e-16 9.470641702e-15 -2.591489503e-16 9.472329202e-15 -2.810857293e-16 9.474287546e-15 -3.046939428e-16 9.476565955e-15 -3.302499e-16 9.479223024e-15 -3.580784661e-16 9.482329048e-15 -3.885641743e-16 9.485966286e-15 -4.22158014e-16 9.490230832e-15 -4.59388746e-16 9.49523249e-15 -5.008707319e-16 9.50109588e-15 -5.47313798e-16 9.507960298e-15 -5.995313648e-16 9.515978764e-15 -6.584480837e-16 9.525320023e-15 -7.251097484e-16 9.536169407e-15 -8.006914896e-16 9.548734779e-15 -8.865156224e-16 9.563256452e-15 -9.840722767e-16 9.580027657e-15 -1.095061652e-15 9.599425881e-15 -1.221449718e-15 9.62196932e-15 -1.365556797e-15 9.648393833e-15 -1.530169414e-15 9.679783971e-15 -1.71866462e-15 9.717761213e-15 -1.93511604e-15 9.76480596e-15 -2.184235137e-15 9.824804953e-15 -2.471193451e-15 9.903478391e-15 -2.79061169e-15 9.992733388e-15 -3.113824044e-15 1.007376404e-14 -3.354381348e-15 1.006701632e-14 -3.223595007e-15 9.71371704e-15 -2.186004176e-15 8.468127143e-15 4.79862111e-15 1.352210862e-15 3.446185122e-15 2.609104372e-15 7.210935688e-15 3.251397571e-15 9.071342711e-15 3.454366898e-15 9.864213326e-15 3.383045733e-15 1.014547269e-14 3.179683055e-15 1.01965169e-14 2.936951975e-15 1.014677284e-14 2.684741331e-15 1.007807171e-14 2.438938183e-15 1.001194661e-14 2.208099244e-15 9.950104248e-15 1.995562534e-15 9.893931282e-15 1.8020809e-15 9.843550917e-15 1.627198939e-15 9.798563085e-15 1.469893339e-15 9.758459114e-15 1.328876067e-15 9.722771681e-15 1.202747952e-15 9.691098788e-15 1.090082859e-15 9.663090992e-15 9.89478563e-16 9.638432548e-15 8.995910314e-16 9.616826539e-15 8.191578442e-16 9.597985235e-15 7.470130705e-16 9.581626862e-15 6.820975299e-16 9.567477837e-15 6.234618858e-16 9.555275512e-15 5.70265694e-16 9.544772663e-15 5.217726386e-16 9.535741013e-15 4.773435856e-16 9.527974216e-15 4.364268283e-16 9.521288684e-15 3.985491421e-16 9.515524401e-15 3.633050641e-16 9.510543471e-15 3.303478951e-16 9.50622888e-15 2.993804333e-16 9.502482266e-15 2.701473807e-16 9.499221763e-15 2.424279854e-16 9.496379832e-15 2.160303578e-16 9.493900748e-15 1.907861365e-16 9.491739048e-15 1.665464387e-16 9.489857644e-15 1.431781591e-16 9.48822633e-15 1.205611683e-16 9.486820596e-15 9.858581654e-17 9.485620589e-15 7.715105262e-17 9.484610286e-15 5.616288439e-17 9.483776735e-15 3.553228934e-17 9.483109454e-15 1.517178319e-17 9.48259957e-15 -5.001512319e-18 9.482243037e-15 -2.506206795e-17 9.482044337e-15 -4.509046388e-17 9.481988502e-15 -6.516748981e-17 9.482074238e-15 -8.537005401e-17 9.482311635e-15 -1.057764672e-16 9.482703579e-15 -1.264725274e-16 9.483249826e-15 -1.475467863e-16 9.483958335e-15 -1.69091461e-16 9.484839755e-15 -1.912052681e-16 9.485907176e-15 -2.139958823e-16 9.487176549e-15 -2.37581387e-16 9.488667889e-15 -2.620932919e-16 9.490405905e-15 -2.876787466e-16 9.492421302e-15 -3.145049214e-16 9.494751657e-15 -3.427626331e-16 9.497443086e-15 -3.726722016e-16 9.500551918e-15 -4.044885783e-16 9.50414645e-15 -4.385092113e-16 9.508309218e-15 -4.750812362e-16 9.5131393e-15 -5.14611108e-16 9.518754343e-15 -5.575733378e-16 9.52529294e-15 -6.045212335e-16 9.532915947e-15 -6.560961323e-16 9.541807647e-15 -7.130370827e-16 9.552175416e-15 -7.761879012e-16 9.564248722e-15 -8.465023093e-16 9.57827673e-15 -9.250449753e-16 9.59452345e-15 -1.012988021e-15 9.61326515e-15 -1.11160229e-15 9.634785697e-15 -1.222241332e-15 9.659375808e-15 -1.346318727e-15 9.687335636e-15 -1.485273983e-15 9.71898463e-15 -1.640522949e-15 9.754676231e-15 -1.813373857e-15 9.79482154e-15 -2.004876461e-15 9.839897012e-15 -2.215519979e-15 9.890428284e-15 -2.444590233e-15 9.946831054e-15 -2.688786365e-15 1.000900197e-14 -2.939600726e-15 1.00756186e-14 -3.181345993e-15 1.014522283e-14 -3.383944044e-15 1.019532928e-14 -3.454542231e-15 1.014436085e-14 -3.251270814e-15 9.863742727e-15 -2.60893095e-15 9.071376618e-15 -1.35211931e-15 7.211316132e-15 3.446502702e-15 8.253194275e-16 2.620866823e-15 1.919040768e-15 6.117214409e-15 2.750000387e-15 8.240382744e-15 3.225245377e-15 9.388967592e-15 3.405869783e-15 9.964848638e-15 3.391574072e-15 1.021081319e-14 3.264001548e-15 1.027434638e-14 3.079582552e-15 1.026249199e-14 2.865870458e-15 1.022565988e-14 2.644180813e-15 1.017179545e-14 2.426048796e-15 1.011206483e-14 2.217796305e-15 1.005180523e-14 2.022734193e-15 9.993627166e-15 1.842371684e-15 9.93882361e-15 1.677105608e-15 9.888040146e-15 1.526637254e-15 9.84156953e-15 1.390239145e-15 9.799491351e-15 1.266931389e-15 9.761742952e-15 1.15560165e-15 9.728158973e-15 1.055089759e-15 9.698499422e-15 9.642467525e-16 9.672472221e-15 8.819742823e-16 9.649752733e-15 8.07249843e-16 9.630002048e-15 7.391415554e-16 9.612883139e-15 6.768131506e-16 9.598071504e-15 6.195240114e-16 9.585265133e-15 5.666246588e-16 9.574189755e-15 5.17549334e-16 9.564601289e-15 4.718075213e-16 9.556286693e-15 4.289749225e-16 9.549062787e-15 3.886844141e-16 9.542774015e-15 3.506177661e-16 9.53728965e-15 3.144979163e-16 9.532500937e-15 2.800823628e-16 9.528317607e-15 2.471572697e-16 9.52466548e-15 2.15532582e-16 9.52148369e-15 1.850377915e-16 9.518722453e-15 1.555184633e-16 9.516341202e-15 1.268332727e-16 9.514306953e-15 9.885154996e-17 9.512593044e-15 7.145117467e-17 9.511177995e-15 4.451643975e-17 9.510044921e-15 1.793605601e-17 9.509180548e-15 -8.39655766e-18 9.508576123e-15 -3.457901075e-17 9.508227184e-15 -6.071683662e-17 9.508126686e-15 -8.691630164e-17 9.508274062e-15 -1.132777248e-16 9.508673441e-15 -1.399034061e-16 9.509329709e-15 -1.669028888e-16 9.510249838e-15 -1.943901816e-16 9.511446229e-15 -2.224851767e-16 9.512935382e-15 -2.513159362e-16 9.5147386e-15 -2.810212654e-16 9.516882533e-15 -3.117531341e-16 9.519400383e-15 -3.436798578e-16 9.52233319e-15 -3.769894511e-16 9.525731461e-15 -4.118941307e-16 9.529656931e-15 -4.486351523e-16 9.534184802e-15 -4.874888487e-16 9.539406432e-15 -5.287731268e-16 9.545431754e-15 -5.728553218e-16 9.552392646e-15 -6.201604089e-16 9.56044584e-15 -6.711801157e-16 9.569775675e-15 -7.264818312e-16 9.580596437e-15 -7.867174027e-16 9.593153398e-15 -8.526302815e-16 9.607722477e-15 -9.250603274e-16 9.624607451e-15 -1.004944317e-15 9.644134706e-15 -1.093310458e-15 9.66664485e-15 -1.191264475e-15 9.692479442e-15 -1.299964565e-15 9.721967208e-15 -1.420581935e-15 9.755405028e-15 -1.554242099e-15 9.793037858e-15 -1.701940955e-15 9.835036335e-15 -1.864424358e-15 9.881469715e-15 -2.042013086e-15 9.932266563e-15 -2.234338092e-15 9.987147886e-15 -2.439925068e-15 1.004548522e-14 -2.655510245e-15 1.01060141e-14 -2.874821685e-15 1.016614287e-14 -3.086358055e-15 1.02205385e-14 -3.268780543e-15 1.025804061e-14 -3.394608764e-15 1.027105042e-14 -3.407535249e-15 1.020825426e-14 -3.22601596e-15 9.962839459e-15 -2.75026173e-15 9.387986307e-15 -1.919059153e-15 8.240172467e-15 -8.252787847e-16 6.117536379e-15 2.62122474e-15 5.353285459e-16 2.085539909e-15 1.405489179e-15 5.247053928e-15 2.213922851e-15 7.431948114e-15 2.797730136e-15 8.805160665e-15 3.146783915e-15 9.615794935e-15 3.293736077e-15 1.00638624e-14 3.293369276e-15 1.027471437e-14 3.199704151e-15 1.035615865e-14 3.049962207e-15 1.037540349e-14 2.869345695e-15 1.035241357e-14 2.674763709e-15 1.030664871e-14 2.477290617e-15 1.02492802e-14 2.283989963e-15 1.018692954e-14 2.099214651e-15 1.012360095e-14 1.925453829e-15 1.006180286e-14 1.763924115e-15 1.000310143e-14 1.614980083e-15 9.948437896e-15 1.478402055e-15 9.898323156e-15 1.353602168e-15 9.852960979e-15 1.239771812e-15 9.812332243e-15 1.135987616e-15 9.776258705e-15 1.041287346e-15 9.744455091e-15 9.547215592e-16 9.716570077e-15 8.753868247e-16 9.692219836e-15 8.024463331e-16 9.671013801e-15 7.351397459e-16 9.65257358e-15 6.727858065e-16 9.636545314e-15 6.147807981e-16 9.622607797e-15 5.605932319e-16 9.610475643e-15 5.097572555e-16 9.599900056e-15 4.618651692e-16 9.590667345e-15 4.165599207e-16 9.58259613e-15 3.735279213e-16 9.575534186e-15 3.324925083e-16 9.569354294e-15 2.932080942e-16 9.563951186e-15 2.554550831e-16 9.559237982e-15 2.190354815e-16 9.555143298e-15 1.837691582e-16 9.551608689e-15 1.494906604e-16 9.548586505e-15 1.160465088e-16 9.54603811e-15 8.329286647e-17 9.543932408e-15 5.109345013e-17 9.542244967e-15 1.931776273e-17 9.540956742e-15 -1.215988216e-17 9.540054171e-15 -4.346051712e-17 9.539528158e-15 -7.470623966e-17 9.539372716e-15 -1.060188256e-16 9.539586966e-15 -1.375193935e-16 9.540174356e-15 -1.693315085e-16 9.541142235e-15 -2.015837678e-16 9.542502576e-15 -2.344101863e-16 9.544273193e-15 -2.679519722e-16 9.54647775e-15 -3.023597271e-16 9.549146957e-15 -3.377959974e-16 9.552319397e-15 -3.744380948e-16 9.556043058e-15 -4.124814105e-16 9.56037707e-15 -4.521432024e-16 9.56539384e-15 -4.936671254e-16 9.571181516e-15 -5.373283712e-16 9.577846839e-15 -5.834396029e-16 9.585518629e-15 -6.32357483e-16 9.594350803e-15 -6.844899135e-16 9.60452646e-15 -7.403035284e-16 9.616261033e-15 -8.003312018e-16 9.629805078e-15 -8.651787344e-16 9.645445801e-15 -9.355299813e-16 9.663506531e-15 -1.01214889e-15 9.684343286e-15 -1.095876834e-15 9.708337282e-15 -1.187622806e-15 9.735882533e-15 -1.288343676e-15 9.767367541e-15 -1.399010836e-15 9.803148393e-15 -1.520558833e-15 9.843516994e-15 -1.653810333e-15 9.888658304e-15 -1.799369905e-15 9.938599199e-15 -1.957476195e-15 9.993144305e-15 -2.127796678e-15 1.005179201e-14 -2.309141171e-15 1.011361265e-14 -2.499051747e-15 1.017705993e-14 -2.693218015e-15 1.023965303e-14 -2.884634683e-15 1.029743173e-14 -3.062289141e-15 1.03437986e-14 -3.209319014e-15 1.03675685e-14 -3.300477905e-15 1.034920028e-14 -3.298450529e-15 1.026902234e-14 -3.149681956e-15 1.005948495e-14 -2.7994256e-15 9.61258111e-15 -2.214718833e-15 8.803277358e-15 -1.405758636e-15 7.431210319e-15 -5.353602656e-16 5.247138399e-15 2.085865333e-15 3.569275131e-16 1.728614333e-15 1.032938206e-15 4.571043064e-15 1.749322847e-15 6.71556343e-15 2.346367724e-15 8.208115609e-15 2.770574313e-15 9.191589405e-15 3.026695089e-15 9.807742757e-15 3.134559557e-15 1.016685187e-14 3.130472205e-15 1.036024795e-14 3.053804839e-15 1.045207275e-14 2.928639486e-15 1.047758107e-14 2.774000206e-15 1.046128978e-14 2.603776542e-15 1.041950557e-14 2.42775576e-15 1.036295244e-14 2.252674478e-15 1.029868386e-14 2.082968199e-15 1.023151131e-14 1.9213866e-15 1.016468503e-14 1.769472619e-15 1.010035373e-14 1.627912811e-15 1.003988524e-14 1.496799251e-15 9.984076908e-15 1.375826568e-15 9.933306925e-15 1.264438701e-15 9.887648693e-15 1.161935946e-15 9.846960056e-15 1.067552163e-15 9.810955746e-15 9.805088948e-16 9.779265081e-15 9.000502002e-16 9.751474392e-15 8.254647666e-16 9.727160616e-15 7.560979346e-16 9.705913736e-15 6.913561179e-16 9.687351076e-15 6.307070526e-16 9.67112606e-15 5.73676681e-16 9.656931703e-15 5.198443393e-16 9.644500908e-15 4.688371367e-16 9.633604539e-15 4.203240643e-16 9.624048461e-15 3.74010337e-16 9.61566923e-15 3.29632105e-16 9.608330616e-15 2.869517262e-16 9.601919532e-15 2.457535648e-16 9.596342569e-15 2.058403533e-16 9.591522923e-15 1.670300313e-16 9.587397734e-15 1.29153027e-16 9.583915894e-15 9.204988917e-17 9.581036194e-15 5.556923183e-17 9.578726151e-15 1.956593913e-17 9.576960456e-15 -1.610023679e-17 9.575720688e-15 -5.1566129e-17 9.574994339e-15 -8.696732902e-17 9.574774189e-15 -1.224390237e-16 9.575058942e-15 -1.581172084e-16 9.57585286e-15 -1.941405986e-16 9.577165996e-15 -2.306522198e-16 9.579014634e-15 -2.678009714e-16 9.581422437e-15 -3.057434299e-16 9.584420742e-15 -3.446460687e-16 9.588050147e-15 -3.846877781e-16 9.592361667e-15 -4.260627209e-16 9.597418576e-15 -4.689836301e-16 9.603298581e-15 -5.136855377e-16 9.610096421e-15 -5.604300969e-16 9.617926868e-15 -6.095104006e-16 9.626928109e-15 -6.612563428e-16 9.637265736e-15 -7.160403131e-16 9.649136156e-15 -7.742831189e-16 9.662770852e-15 -8.36459639e-16 9.678439308e-15 -9.031036596e-16 9.696450965e-15 -9.748109422e-16 9.717155005e-15 -1.052239317e-15 9.740936828e-15 -1.136104021e-15 9.768209877e-15 -1.227166068e-15 9.799401153e-15 -1.32621069e-15 9.834928919e-15 -1.43401229e-15 9.875170842e-15 -1.551281251e-15 9.920419022e-15 -1.678587198e-15 9.970824579e-15 -1.816251627e-15 1.002632439e-14 -1.96420151e-15 1.008655057e-14 -2.121771582e-15 1.015071617e-14 -2.287443329e-15 1.021746517e-14 -2.458491863e-15 1.028466291e-14 -2.630520897e-15 1.034909085e-14 -2.796844125e-15 1.040597749e-14 -2.947734586e-15 1.044832415e-14 -3.069367953e-15 1.046543279e-14 -3.142770755e-15 1.044097301e-14 -3.143962794e-15 1.035039269e-14 -3.033405715e-15 1.015846583e-14 -2.774987877e-15 9.80106629e-15 -2.34905586e-15 9.186647639e-15 -1.750723696e-15 8.204942584e-15 -1.033498968e-15 6.713983473e-15 -3.570431837e-16 4.570683055e-15 1.728823109e-15 2.459570429e-16 1.482659441e-15 7.681830078e-16 4.048817301e-15 1.376404577e-15 6.10734161e-15 1.936047034e-15 7.648473461e-15 2.380498148e-15 8.747139185e-15 2.690896432e-15 9.497346432e-15 2.871937825e-15 9.985812569e-15 2.944476858e-15 1.028771126e-14 2.935426969e-15 1.046112516e-14 2.867205092e-15 1.054580485e-14 2.758419996e-15 1.057007724e-14 2.623746946e-15 1.055418102e-14 2.474284215e-15 1.051241674e-14 2.318298096e-15 1.045467225e-14 2.16166209e-15 1.038814895e-14 2.008393701e-15 1.031795551e-14 1.861107223e-15 1.024764248e-14 1.72137077e-15 1.017962361e-14 1.589985647e-15 1.011546391e-14 1.467207189e-15 1.005608765e-14 1.352915785e-15 1.000194221e-14 1.246747741e-15 9.953130029e-15 1.148192453e-15 9.909513135e-15 1.056662273e-15 9.870797072e-15 9.7154251e-16 9.83659582e-15 8.922243256e-16 9.806480544e-15 8.181254107e-16 9.780014176e-15 7.48702363e-16 9.756775553e-15 6.834560501e-16 9.736373707e-15 6.219330263e-16 9.718455977e-15 5.637240641e-16 9.702711067e-15 5.084610398e-16 9.688868725e-15 4.558129678e-16 9.676697674e-15 4.054817246e-16 9.666001592e-15 3.571978072e-16 9.656615622e-15 3.107163241e-16 9.648402052e-15 2.658133396e-16 9.64124652e-15 2.222825913e-16 9.635054542e-15 1.799325971e-16 9.629748493e-15 1.385840981e-16 9.625265043e-15 9.80678313e-17 9.621553002e-15 5.822253713e-17 9.618571886e-15 1.889325198e-17 9.616290103e-15 -2.007025975e-17 9.6146845e-15 -5.881497962e-17 9.613739325e-15 -9.748633309e-17 9.613445798e-15 -1.362293063e-16 9.613802188e-15 -1.751899663e-16 9.614813827e-15 -2.145169282e-16 9.616493317e-15 -2.543630129e-16 9.618861135e-15 -2.948868223e-16 9.621946717e-15 -3.362546069e-16 9.625789036e-15 -3.786423491e-16 9.630438434e-15 -4.222381597e-16 9.635958061e-15 -4.672449699e-16 9.642426018e-15 -5.138835585e-16 9.649937879e-15 -5.623959551e-16 9.658609649e-15 -6.13049218e-16 9.668581135e-15 -6.661395503e-16 9.680019648e-15 -7.219966134e-16 9.69312423e-15 -7.809878668e-16 9.708129058e-15 -8.435225758e-16 9.725307399e-15 -9.100549576e-16 9.744973659e-15 -9.81085664e-16 9.767483709e-15 -1.057160511e-15 9.793231893e-15 -1.138864929e-15 9.822643242e-15 -1.226812149e-15 9.856159007e-15 -1.321622511e-15 9.894213331e-15 -1.423890696e-15 9.937198825e-15 -1.534136814e-15 9.985418614e-15 -1.652736562e-15 1.003902035e-14 -1.779824416e-15 1.009791402e-14 -1.91516357e-15 1.016166494e-14 -2.057973132e-15 1.022936183e-14 -2.206707497e-15 1.029945172e-14 -2.358771671e-15 1.036953118e-14 -2.510175639e-15 1.043606863e-14 -2.655103952e-15 1.049402075e-14 -2.78534074e-15 1.053621645e-14 -2.889860779e-15 1.055284562e-14 -2.954049594e-15 1.052962362e-14 -2.959339023e-15 1.044626378e-14 -2.883376968e-15 1.027443208e-14 -2.699289882e-15 9.97437929e-15 -2.386245602e-15 9.488021742e-15 -1.939655211e-15 8.740055798e-15 -1.378374402e-15 7.64365922e-15 -7.690229848e-16 6.104629978e-15 -2.46152859e-16 4.047813519e-15 1.482671272e-15 1.758969222e-16 1.306764944e-15 5.809143002e-16 3.643800237e-15 1.086374327e-15 5.601881427e-15 1.586390018e-15 7.148458249e-15 2.016192624e-15 8.317337925e-15 2.346144807e-15 9.167396061e-15 2.569791414e-15 9.76216854e-15 2.696102232e-15 1.01614031e-14 2.74178814e-15 1.041544173e-14 2.724425633e-15 1.056317041e-14 2.660296374e-15 1.063420899e-14 2.563289938e-15 1.065118948e-14 2.44451226e-15 1.063119712e-14 2.31286082e-15 1.058632536e-14 2.174984775e-15 1.052602735e-14 2.035763569e-15 1.045717869e-14 1.898638661e-15 1.038476917e-14 1.765919098e-15 1.031234535e-14 1.639046482e-15 1.024233877e-14 1.518814426e-15 1.017632159e-14 1.405547651e-15 1.011521101e-14 1.29924289e-15 1.005943691e-14 1.199677775e-15 1.000908005e-14 1.106493391e-15 9.963983351e-15 1.019253521e-15 9.923837514e-15 9.374873374e-16 9.88824826e-15 8.607184694e-16 9.856784582e-15 7.884832594e-16 9.829012183e-15 7.203421832e-16 9.804516097e-15 6.558855626e-16 9.782913829e-15 5.947357021e-16 9.763862086e-15 5.365466391e-16 9.747058895e-15 4.81002395e-16 9.732242978e-15 4.278144459e-16 9.719190558e-15 3.767187968e-16 9.707712235e-15 3.274730051e-16 9.697648744e-15 2.798532834e-16 9.688867062e-15 2.336518106e-16 9.681256747e-15 1.886742655e-16 9.674726675e-15 1.447376147e-16 9.669202238e-15 1.016681193e-16 9.664622955e-15 5.92995614e-17 9.660940828e-15 1.747162994e-17 9.65811836e-15 -2.397152061e-17 9.656127937e-15 -6.518271198e-17 9.654950783e-15 -1.063131421e-16 9.654576496e-15 -1.475136622e-16 9.655002994e-15 -1.889360662e-16 9.656236555e-15 -2.307345609e-16 9.658292184e-15 -2.730671957e-16 9.661194196e-15 -3.16097451e-16 9.664977448e-15 -3.599959089e-16 9.669688025e-15 -4.049421844e-16 9.675385297e-15 -4.511270432e-16 9.682143575e-15 -4.987547625e-16 9.690054485e-15 -5.480457301e-16 9.699229725e-15 -5.992392729e-16 9.709804245e-15 -6.52596682e-16 9.721939805e-15 -7.084043005e-16 9.735828762e-15 -7.669765378e-16 9.751698196e-15 -8.286584802e-16 9.76981294e-15 -8.938276843e-16 9.790478701e-15 -9.628944777e-16 9.814042642e-15 -1.036299864e-15 9.840891304e-15 -1.114509776e-15 9.871443972e-15 -1.198004026e-15 9.906139564e-15 -1.287257811e-15 9.945414747e-15 -1.382713113e-15 9.989670454e-15 -1.484736666e-15 1.00392241e-14 -1.593560715e-15 1.009424427e-14 -1.709201611e-15 1.015466281e-14 -1.831351593e-15 1.022006543e-14 -1.959236838e-15 1.028955182e-14 -2.091438312e-15 1.036156452e-14 -2.225666142e-15 1.043368131e-14 -2.358493115e-15 1.050235977e-14 -2.485073247e-15 1.056265033e-14 -2.598817499e-15 1.060776711e-14 -2.690927743e-15 1.062832842e-14 -2.750362642e-15 1.061228243e-14 -2.763258823e-15 1.054252201e-14 -2.713377614e-15 1.039638445e-14 -2.583204472e-15 1.01442606e-14 -2.356097335e-15 9.747273108e-15 -2.023128879e-15 9.155053267e-15 -1.59082352e-15 8.307749227e-15 -1.088851173e-15 7.141684482e-15 -5.820020864e-16 5.597778779e-15 -1.761626852e-16 3.641974878e-15 1.306509766e-15 1.300030216e-16 1.176764428e-15 4.468252143e-16 3.326978566e-15 8.628441787e-16 5.185862666e-15 1.297528242e-15 6.713774613e-15 1.69412456e-15 7.920742911e-15 2.020295846e-15 8.841227094e-15 2.262904005e-15 9.519562827e-15 2.422616349e-15 1.000169385e-14 2.508334212e-15 1.032972685e-14 2.532252714e-15 1.053925467e-14 2.507235247e-15 1.065922911e-14 2.445730894e-15 1.071269685e-14 2.358177926e-15 1.071875208e-14 2.252802702e-15 1.069170295e-14 2.136549941e-15 1.064228213e-14 2.014752104e-15 1.057897857e-14 1.891388015e-15 1.050813576e-14 1.769306799e-15 1.043442845e-14 1.650460105e-15 1.036118735e-14 1.53610265e-15 1.029068128e-14 1.426962211e-15 1.022435353e-14 1.323380181e-15 1.016302083e-14 1.225423868e-15 1.010703843e-14 1.132972999e-15 1.005643599e-14 1.045786546e-15 1.001102559e-14 9.635511749e-16 9.970485341e-15 8.859159106e-16 9.934421339e-15 8.125166571e-16 9.902412832e-15 7.429918674e-16 9.874042181e-15 6.769925461e-16 9.848914345e-15 6.141878194e-16 9.826667924e-15 5.542675136e-16 9.806980237e-15 4.969427399e-16 9.789568723e-15 4.41945213e-16 9.774188992e-15 3.890258268e-16 9.760632462e-15 3.37952843e-16 9.748722495e-15 2.885099289e-16 9.738310667e-15 2.404941843e-16 9.729273103e-15 1.937142558e-16 9.72150714e-15 1.47988561e-16 9.714928399e-15 1.031436643e-16 9.709468258e-15 5.901276508e-17 9.705072083e-15 1.543433377e-17 9.701697112e-15 -2.774919255e-17 9.699311762e-15 -7.069262982e-17 9.697894513e-15 -1.135492944e-16 9.69743346e-15 -1.564721233e-16 9.697926148e-15 -1.99614892e-16 9.699379685e-15 -2.431334306e-16 9.701811131e-15 -2.871869479e-16 9.705248173e-15 -3.319393756e-16 9.709730396e-15 -3.775608686e-16 9.715310107e-15 -4.242294182e-16 9.722054516e-15 -4.721326236e-16 9.730047552e-15 -5.214696006e-16 9.739392372e-15 -5.724530176e-16 9.750214232e-15 -6.253112131e-16 9.762663742e-15 -6.802902841e-16 9.776920419e-15 -7.376560283e-16 9.793196297e-15 -7.976954703e-16 9.811739661e-15 -8.607176317e-16 9.83283731e-15 -9.270530078e-16 9.856816409e-15 -9.970510427e-16 9.884043054e-15 -1.071074586e-15 9.914917203e-15 -1.149490055e-15 9.949861704e-15 -1.232651563e-15 9.989303213e-15 -1.320876989e-15 1.003364216e-14 -1.414413327e-15 1.008320864e-14 -1.51338848e-15 1.013820095e-14 -1.617745827e-15 1.019860322e-14 -1.72715807e-15 1.026407652e-14 -1.840915702e-15 1.033382467e-14 -1.957787401e-15 1.040642477e-14 -2.075845818e-15 1.047962471e-14 -2.192261991e-15 1.055009891e-14 -2.303067875e-15 1.061316677e-14 -2.402928901e-15 1.066251367e-14 -2.48500373e-15 1.068984356e-14 -2.5412386e-15 1.068456543e-14 -2.561211201e-15 1.063225757e-14 -2.532438349e-15 1.051375102e-14 -2.442113726e-15 1.030606237e-14 -2.278129321e-15 9.980277973e-15 -2.031664507e-15 9.500809568e-15 -1.702116896e-15 8.825505875e-15 -1.302687552e-15 7.908318857e-15 -8.657614006e-16 6.704755875e-15 -4.481252185e-16 5.180140815e-15 -1.303273476e-16 3.324178047e-15 1.17618359e-15 9.868598183e-17 1.078081285e-15 3.489599039e-16 3.076705333e-15 6.90281623e-16 4.844540986e-15 1.06228604e-15 6.341771087e-15 1.417831973e-15 7.56519858e-15 1.726098883e-15 8.532962227e-15 1.97096079e-15 9.274704012e-15 2.147869426e-15 9.824787765e-15 2.260131075e-15 1.021746842e-14 2.31536217e-15 1.048402635e-14 2.322830671e-15 1.065176365e-14 2.292158656e-15 1.074337135e-14 2.2330458e-15 1.077786731e-14 2.153274172e-15 1.077147711e-14 2.059224697e-15 1.073633365e-14 1.956257989e-15 1.068194783e-14 1.848574601e-15 1.061582077e-14 1.739339103e-15 1.054366619e-14 1.630850616e-15 1.046967796e-14 1.52471384e-15 1.039681991e-14 1.421987844e-15 1.032708153e-14 1.323314744e-15 1.026169606e-14 1.229026394e-15 1.020132857e-14 1.139231462e-15 1.014623281e-14 1.053882396e-15 1.009637647e-14 9.728275102e-16 1.005154173e-14 8.958497311e-16 1.001140063e-14 8.22694142e-16 9.975569803e-15 7.53087901e-16 9.943649684e-15 6.867534419e-16 9.915249959e-15 6.234170623e-16 9.890005355e-15 5.628141059e-16 9.867584157e-15 5.046917247e-16 9.847691984e-15 4.488100366e-16 9.830071483e-15 3.94942196e-16 9.814501029e-15 3.42873816e-16 9.80079153e-15 2.924019922e-16 9.788783078e-15 2.433341406e-16 9.77834148e-15 1.954867513e-16 9.769354998e-15 1.48684147e-16 9.761731425e-15 1.027572733e-16 9.755395515e-15 5.754255368e-17 9.750287159e-15 1.288079558e-17 9.746359209e-15 -3.138384294e-17 9.743576733e-15 -7.540487097e-17 9.741915878e-15 -1.19334448e-16 9.741363391e-15 -1.633243646e-16 9.741916446e-15 -2.075270184e-16 9.743582758e-15 -2.520964545e-16 9.746381031e-15 -2.97189413e-16 9.750341654e-15 -3.429664678e-16 9.755508041e-15 -3.895932012e-16 9.761937514e-15 -4.372414842e-16 9.769703577e-15 -4.860908061e-16 9.778897793e-15 -5.363296728e-16 9.789632335e-15 -5.881569965e-16 9.802042865e-15 -6.417834089e-16 9.816291707e-15 -6.974323773e-16 9.832571198e-15 -7.553409224e-16 9.851106902e-15 -8.157596626e-16 9.872160674e-15 -8.789517591e-16 9.896031835e-15 -9.451902245e-16 9.923057384e-15 -1.014752809e-15 9.953608157e-15 -1.087913477e-15 9.988080321e-15 -1.164929159e-15 1.002687972e-14 -1.246020202e-15 1.007039642e-14 -1.331342542e-15 1.01189665e-14 -1.420949448e-15 1.017281737e-14 -1.514740187e-15 1.02319934e-14 -1.612393348e-15 1.029625787e-14 -1.713281421e-15 1.036496621e-14 -1.81636614e-15 1.043691048e-14 -1.920068574e-15 1.051012902e-14 -2.022121859e-15 1.058167904e-14 -2.119391017e-15 1.064736931e-14 -2.207682233e-15 1.070146045e-14 -2.281625147e-15 1.073645783e-14 -2.334985254e-15 1.074320654e-14 -2.360057376e-15 1.070963969e-14 -2.347145264e-15 1.061934756e-14 -2.286640939e-15 1.045324948e-14 -2.169364471e-15 1.018878804e-14 -1.987797668e-15 9.798713205e-15 -1.738716488e-15 9.251729713e-15 -1.426742918e-15 8.513532578e-15 -1.068069305e-15 7.54964434e-15 -6.935722561e-16 6.330256766e-15 -3.504368255e-16 4.837003612e-15 -9.90579898e-17 3.072800341e-15 1.077126892e-15 7.651628711e-17 1.001567642e-15 2.761137138e-16 2.877108854e-15 5.562394925e-16 4.564415899e-15 8.718047009e-16 6.026206512e-15 1.184766143e-15 7.252238718e-15 1.467692018e-15 8.250038878e-15 1.703908369e-15 9.038490013e-15 1.885986108e-15 9.642713346e-15 2.013414311e-15 1.009004286e-14 2.090152142e-15 1.04072914e-14 2.122673511e-15 1.061924507e-14 2.118022439e-15 1.074802459e-14 2.083780698e-15 1.081211198e-14 2.027286