/*--------------------------------*- C++ -*----------------------------------*\
  =========                 |
  \\      /  F ield         | OpenFOAM: The Open Source CFD Toolbox
   \\    /   O peration     | Website:  https://openfoam.org
    \\  /    A nd           | Version:  7
     \\/     M anipulation  |
\*---------------------------------------------------------------------------*/
FoamFile
{
    version     2.0;
    format      ascii;
    class       volVectorField;
    location    "0";
    object      U;
}
// * * * * * * * * * * * * * * * * * * * * * * * * * * * * * * * * * * * * * //

dimensions      [0 1 -1 0 0 0 0];

internalField nonuniform List<vector> 30439((0.0003127387291 1.929289109e-05 0.0) (0.0004939686334 0.0001337969513 0.0) (0.0005166612924 0.0001253251516 0.0) (0.0005102486264 9.723614884e-05 0.0) (0.0005052577107 7.719188026e-05 0.0) (0.0005033525663 6.271653409e-05 0.0) (0.0005022274891 5.229440848e-05 0.0) (0.0005015031093 4.437375951e-05 0.0) (0.0005010695698 3.821141804e-05 0.0) (0.0005007990436 3.324926873e-05 0.0) (0.0005006197738 2.914517276e-05 0.0) (0.0005004943622 2.569015227e-05 0.0) (0.0005004024389 2.274666603e-05 0.0) (0.0005003324132 2.021845528e-05 0.0) (0.0005002775301 1.80346109e-05 0.0) (0.0005002336348 1.614040731e-05 0.0) (0.0005001980558 1.449183406e-05 0.0) (0.0005001689706 1.305242416e-05 0.0) (0.0005001450851 1.179133842e-05 0.0) (0.0005001254296 1.0682241e-05 0.0) (0.0005001092241 9.702504169e-06 0.0) (0.0005000958586 8.832697596e-06 0.0) (0.0005000848209 8.056204613e-06 0.0) (0.0005000756912 7.358875844e-06 0.0) (0.0005000681142 6.728720779e-06 0.0) (0.000500061808 6.155637404e-06 0.0) (0.000500056525 5.631142178e-06 0.0) (0.000500052082 5.148129645e-06 0.0) (0.0005000483167 4.700660392e-06 0.0) (0.0005000451101 4.283753286e-06 0.0) (0.0005000423593 3.893226693e-06 0.0) (0.0005000399923 3.525550352e-06 0.0) (0.0005000379431 3.177725994e-06 0.0) (0.000500036167 2.847177269e-06 0.0) (0.0005000346235 2.531676657e-06 0.0) (0.0005000332861 2.229271597e-06 0.0) (0.0005000321292 1.938236696e-06 0.0) (0.0005000311369 1.657021383e-06 0.0) (0.0005000302952 1.384218839e-06 0.0) (0.0005000296078 1.118516825e-06 0.0) (0.000500029119 8.587151591e-07 0.0) (0.0005000288892 6.039175573e-07 0.0) (0.0005000290409 3.531353323e-07 0.0) (0.0005000338297 1.009777915e-07 0.0) (0.0005000670154 -1.541968443e-07 0.0) (0.00050007873 -3.829058611e-07 0.0) (0.0005000515315 -6.225571881e-07 0.0) (0.0005000307263 -8.790310371e-07 0.0) (0.0005000289216 -1.129782186e-06 0.0) (0.0005000290059 -1.381602719e-06 0.0) (0.0005000293429 -1.637890769e-06 0.0) (0.000500029923 -1.89940842e-06 0.0) (0.0005000306861 -2.167218881e-06 0.0) (0.0005000316018 -2.442607213e-06 0.0) (0.0005000326833 -2.726963537e-06 0.0) (0.0005000339386 -3.021819036e-06 0.0) (0.0005000353995 -3.328880924e-06 0.0) (0.0005000370884 -3.650077838e-06 0.0) (0.0005000390518 -3.987618423e-06 0.0) (0.0005000413279 -4.344070367e-06 0.0) (0.0005000439884 -4.722431976e-06 0.0) (0.0005000471033 -5.126229651e-06 0.0) (0.0005000507807 -5.559646158e-06 0.0) (0.0005000551352 -6.027671076e-06 0.0) (0.0005000603311 -6.536265165e-06 0.0) (0.0005000665542 -7.092543492e-06 0.0) (0.0005000740488 -7.705010883e-06 0.0) (0.0005000830994 -8.383793351e-06 0.0) (0.0005000940598 -9.140917572e-06 0.0) (0.000500107351 -9.990568724e-06 0.0) (0.0005001234822 -1.094942582e-05 0.0) (0.0005001430804 -1.203696196e-05 0.0) (0.0005001669022 -1.327588508e-05 0.0) (0.0005001959357 -1.469262666e-05 0.0) (0.0005002314662 -1.631812449e-05 0.0) (0.000500275331 -1.818895118e-05 0.0) (0.0005003301772 -2.034925628e-05 0.0) (0.0005004001814 -2.285394167e-05 0.0) (0.0005004920909 -2.577413393e-05 0.0) (0.0005006175343 -2.92064353e-05 0.0) (0.0005007969262 -3.328887696e-05 0.0) (0.0005010677666 -3.823130707e-05 0.0) (0.0005015021628 -4.437766493e-05 0.0) (0.000502228331 -5.228925546e-05 0.0) (0.0005033533146 -6.270716767e-05 0.0) (0.0005052585437 -7.717960027e-05 0.0) (0.0005102494429 -9.722243968e-05 0.0) (0.0005166626809 -0.0001253112404 0.0) (0.0004939718173 -0.0001337880334 0.0) (0.0003127405246 -1.929205132e-05 0.0) (0.0002969843265 4.932320866e-05 0.0) (0.0004785058061 0.0001603148022 0.0) (0.0005224784746 0.0001827822958 0.0) (0.0005324522737 0.0001736756504 0.0) (0.0005289164008 0.0001563755991 0.0) (0.0005218117501 0.0001394332631 0.0) (0.0005169727281 0.000122959054 0.0) (0.0005133636806 0.0001086256869 0.0) (0.0005107991121 9.627388354e-05 0.0) (0.0005089325709 8.553787541e-05 0.0) (0.0005075177256 7.616388475e-05 0.0) (0.0005064048757 6.795692223e-05 0.0) (0.0005055031871 6.075630137e-05 0.0) (0.0005047562656 5.442823025e-05 0.0) (0.0005041280722 4.886044346e-05 0.0) (0.000503594692 4.395691902e-05 0.0) (0.0005031394761 3.96339871e-05 0.0) (0.000502750187 3.581778577e-05 0.0) (0.0005024172931 3.244264853e-05 0.0) (0.0005021329836 2.945013273e-05 0.0) (0.0005018905643 2.678837274e-05 0.0) (0.0005016842027 2.441160905e-05 0.0) (0.0005015087232 2.227975164e-05 0.0) (0.0005013595697 2.035796161e-05 0.0) (0.0005012327182 1.861618614e-05 0.0) (0.0005011246931 1.702867011e-05 0.0) (0.0005010324834 1.557347088e-05 0.0) (0.000500953556 1.423196392e-05 0.0) (0.0005008857616 1.298837438e-05 0.0) (0.0005008273317 1.182934331e-05 0.0) (0.0005007767941 1.074354263e-05 0.0) (0.0005007329585 9.721330172e-06 0.0) (0.0005006948424 8.75445502e-06 0.0) (0.0005006616599 7.835802612e-06 0.0) (0.0005006327678 6.959189994e-06 0.0) (0.0005006076543 6.119189751e-06 0.0) (0.0005005859018 5.310990658e-06 0.0) (0.0005005671782 4.530279444e-06 0.0) (0.000500551218 3.773145518e-06 0.0) (0.0005005378134 3.036004411e-06 0.0) (0.0005005268156 2.315558926e-06 0.0) (0.0005005180473 1.6088468e-06 0.0) (0.0005005109966 9.131965076e-07 0.0) (0.000500505109 2.253185475e-07 0.0) (0.0005005035737 -4.602299074e-07 0.0) (0.000500503292 -1.140501519e-06 0.0) (0.0005005034679 -1.822533181e-06 0.0) (0.0005005068856 -2.508134977e-06 0.0) (0.0005005130486 -3.197542761e-06 0.0) (0.0005005204471 -3.895775195e-06 0.0) (0.0005005298478 -4.605720007e-06 0.0) (0.0005005415976 -5.33018111e-06 0.0) (0.0005005558792 -6.072310429e-06 0.0) (0.0005005728736 -6.835616913e-06 0.0) (0.0005005928559 -7.623938325e-06 0.0) (0.000500616144 -8.44152824e-06 0.0) (0.0005006431753 -9.293138343e-06 0.0) (0.0005006744576 -1.018414214e-05 0.0) (0.000500710655 -1.1120681e-05 0.0) (0.000500752547 -1.210984416e-05 0.0) (0.0005008011399 -1.315987067e-05 0.0) (0.0005008576242 -1.428039873e-05 0.0) (0.0005009234927 -1.548276767e-05 0.0) (0.0005010005087 -1.678036062e-05 0.0) (0.0005010908406 -1.818899178e-05 0.0) (0.0005011970252 -1.972733167e-05 0.0) (0.000501322087 -2.141738671e-05 0.0) (0.0005014695087 -2.328498278e-05 0.0) (0.0005016433296 -2.536027708e-05 0.0) (0.0005018481268 -2.767823009e-05 0.0) (0.0005020890936 -3.027908659e-05 0.0) (0.0005023721034 -3.320879063e-05 0.0) (0.0005027038561 -3.651944137e-05 0.0) (0.0005030922157 -4.026975575e-05 0.0) (0.000503546729 -4.45257231e-05 0.0) (0.0005040796914 -4.936159509e-05 0.0) (0.0005047077796 -5.486148068e-05 0.0) (0.0005054550142 -6.112199045e-05 0.0) (0.0005063575796 -6.825606614e-05 0.0) (0.000507472141 -7.639853524e-05 0.0) (0.0005088899863 -8.571129275e-05 0.0) (0.0005107615869 -9.639099662e-05 0.0) (0.0005133348319 -0.0001086944535 0.0) (0.0005169565365 -0.0001229941298 0.0) (0.0005217987252 -0.0001394492207 0.0) (0.0005289125254 -0.0001563741638 0.0) (0.000532449696 -0.000173657682 0.0) (0.0005224835904 -0.000182763497 0.0) (0.0004785178437 -0.0001603023072 0.0) (0.0002969929558 -4.932096204e-05 0.0) (0.00022043805 2.662774834e-05 0.0) (0.0004173563467 0.00011589675 0.0) (0.0005011467661 0.0001609711307 0.0) (0.0005309546602 0.0001815817259 0.0) (0.0005375320005 0.0001833987747 0.0) (0.0005368408907 0.000174442536 0.0) (0.000532047023 0.000162382066 0.0) (0.0005273239136 0.0001488910897 0.0) (0.0005235451169 0.0001355135328 0.0) (0.0005204182433 0.000122819194 0.0) (0.0005177920023 0.0001110526663 0.0) (0.0005155595941 0.0001002982426 0.0) (0.0005136422532 9.055283193e-05 0.0) (0.000511982213 8.177142697e-05 0.0) (0.0005105376537 7.388968226e-05 0.0) (0.0005092777513 6.68347499e-05 0.0) (0.0005081789914 6.053080618e-05 0.0) (0.0005072224585 5.490230811e-05 0.0) (0.0005063920978 4.987609445e-05 0.0) (0.0005056736537 4.538284359e-05 0.0) (0.0005050540808 4.135806409e-05 0.0) (0.0005045213227 3.774273646e-05 0.0) (0.0005040642235 3.448365066e-05 0.0) (0.0005036725747 3.153345008e-05 0.0) (0.0005033371359 2.885046337e-05 0.0) (0.0005030496925 2.639837814e-05 0.0) (0.0005028030297 2.41457883e-05 0.0) (0.0005025909247 2.206568729e-05 0.0) (0.0005024080598 2.013493834e-05 0.0) (0.0005022499639 1.833374817e-05 0.0) (0.0005021128973 1.664517909e-05 0.0) (0.0005019937748 1.50547011e-05 0.0) (0.000501890051 1.354979573e-05 0.0) (0.0005017996517 1.211961054e-05 0.0) (0.0005017208802 1.075466936e-05 0.0) (0.000501652364 9.446623826e-06 0.0) (0.0005015929845 8.188051605e-06 0.0) (0.0005015418409 6.972282411e-06 0.0) (0.0005014982009 5.793263903e-06 0.0) (0.0005014614804 4.645437305e-06 0.0) (0.0005014312057 3.52365795e-06 0.0) (0.0005014069707 2.423105849e-06 0.0) (0.0005013883269 1.339191099e-06 0.0) (0.0005013749168 2.673870667e-07 0.0) (0.0005013671246 -7.96898155e-07 0.0) (0.0005013649401 -1.856806651e-06 0.0) (0.0005013685786 -2.917433194e-06 0.0) (0.0005013779393 -3.98277629e-06 0.0) (0.0005013926004 -5.056547175e-06 0.0) (0.0005014125948 -6.143410226e-06 0.0) (0.0005014384104 -7.247945582e-06 0.0) (0.0005014705335 -8.374857113e-06 0.0) (0.000501509442 -9.529185657e-06 0.0) (0.0005015557181 -1.071636895e-05 0.0) (0.0005016100971 -1.194235805e-05 0.0) (0.0005016734858 -1.321372325e-05 0.0) (0.0005017470228 -1.453779979e-05 0.0) (0.0005018320971 -1.592285666e-05 0.0) (0.000501930431 -1.737831007e-05 0.0) (0.000502044119 -1.891497242e-05 0.0) (0.0005021757364 -2.054534165e-05 0.0) (0.0005023283923 -2.228394481e-05 0.0) (0.0005025058531 -2.414773743e-05 0.0) (0.0005027126118 -2.615655117e-05 0.0) (0.0005029540121 -2.833358259e-05 0.0) (0.0005032363037 -3.07059141e-05 0.0) (0.0005035667288 -3.330505168e-05 0.0) (0.0005039535393 -3.616743591e-05 0.0) (0.0005044060139 -3.933489864e-05 0.0) (0.0005049344223 -4.285499936e-05 0.0) (0.0005055499797 -4.678120629e-05 0.0) (0.0005062648328 -5.117284534e-05 0.0) (0.0005070920978 -5.609479518e-05 0.0) (0.000508046144 -6.161684447e-05 0.0) (0.000509143117 -6.781271148e-05 0.0) (0.0005104020758 -7.475857782e-05 0.0) (0.0005118466917 -8.253107085e-05 0.0) (0.0005135080519 -9.120396566e-05 0.0) (0.0005154283764 -0.0001008428458 0.0) (0.0005176660517 -0.0001114942791 0.0) (0.0005203006408 -0.0001231633656 0.0) (0.0005234402776 -0.0001357677127 0.0) (0.0005272404439 -0.0001490650983 0.0) (0.0005320044732 -0.0001624902031 0.0) (0.0005368105647 -0.000174510599 0.0) (0.0005374945846 -0.0001834243054 0.0) (0.0005309378805 -0.000181576438 0.0) (0.0005011492755 -0.0001609615771 0.0) (0.0004173750266 -0.0001158886747 0.0) (0.0002204529172 -2.662593858e-05 0.0) (0.0001586352516 1.224277162e-05 0.0) (0.0003515832422 7.710024502e-05 0.0) (0.0004591104019 0.0001273203852 0.0) (0.0005117194124 0.0001621214391 0.0) (0.0005350623934 0.0001786348677 0.0) (0.0005420207804 0.0001818214705 0.0) (0.0005419900039 0.0001771051011 0.0) (0.0005395226199 0.0001685172654 0.0) (0.0005363425074 0.0001576195648 0.0) (0.0005329698205 0.0001458896678 0.0) (0.0005296862485 0.0001341329625 0.0) (0.0005266109771 0.0001227832947 0.0) (0.0005237837651 0.0001120748307 0.0) (0.0005212111671 0.0001021233927 0.0) (0.0005188872359 9.297256404e-05 0.0) (0.0005168013034 8.462057524e-05 0.0) (0.0005149405897 7.70373837e-05 0.0) (0.0005132910539 7.017583609e-05 0.0) (0.0005118375865 6.397917467e-05 0.0) (0.0005105641836 5.838628447e-05 0.0) (0.0005094542386 5.333536792e-05 0.0) (0.0005084909411 4.876649206e-05 0.0) (0.0005076577261 4.462324488e-05 0.0) (0.0005069387019 4.085375214e-05 0.0) (0.000506318997 3.741116698e-05 0.0) (0.0005057850198 3.42537762e-05 0.0) (0.0005053245975 3.134485593e-05 0.0) (0.0005049270323 2.865233786e-05 0.0) (0.0005045830664 2.614837546e-05 0.0) (0.0005042848031 2.380886829e-05 0.0) (0.0005040255803 2.161297841e-05 0.0) (0.0005037998342 1.954266692e-05 0.0) (0.0005036029505 1.758226808e-05 0.0) (0.0005034311279 1.57181093e-05 0.0) (0.000503281248 1.393818e-05 0.0) (0.0005031507618 1.223184808e-05 0.0) (0.0005030375917 1.058961798e-05 0.0) (0.0005029400473 9.002930895e-06 0.0) (0.0005028567595 7.463990815e-06 0.0) (0.000502786619 5.96563021e-06 0.0) (0.0005027287399 4.501179107e-06 0.0) (0.0005026824079 3.064369248e-06 0.0) (0.0005026470718 1.649209733e-06 0.0) (0.0005026223508 2.499493132e-07 0.0) (0.0005026080535 -1.138861795e-06 0.0) (0.0005026039842 -2.522435511e-06 0.0) (0.0005026102357 -3.906502796e-06 0.0) (0.0005026268054 -5.296499901e-06 0.0) (0.0005026538364 -6.69768958e-06 0.0) (0.0005026916297 -8.115732251e-06 0.0) (0.0005027407337 -9.556509433e-06 0.0) (0.0005028018379 -1.102619493e-05 0.0) (0.0005028758344 -1.253131704e-05 0.0) (0.0005029638245 -1.407891391e-05 0.0) (0.000503067191 -1.567664314e-05 0.0) (0.0005031876399 -1.733294239e-05 0.0) (0.0005033272819 -1.905719235e-05 0.0) (0.0005034887 -2.085992828e-05 0.0) (0.0005036750571 -2.275308365e-05 0.0) (0.0005038901975 -2.475027882e-05 0.0) (0.0005041387862 -2.686715135e-05 0.0) (0.0005044264333 -2.912173697e-05 0.0) (0.0005047598502 -3.153489713e-05 0.0) (0.0005051469787 -3.413078191e-05 0.0) (0.0005055971273 -3.693731331e-05 0.0) (0.0005061210444 -3.998666408e-05 0.0) (0.0005067309638 -4.33156941e-05 0.0) (0.0005074405471 -4.696628528e-05 0.0) (0.0005082647539 -5.098550572e-05 0.0) (0.0005092195863 -5.542550644e-05 0.0) (0.0005103217447 -6.034304306e-05 0.0) (0.0005115881978 -6.579848466e-05 0.0) (0.0005130357303 -7.185415854e-05 0.0) (0.0005146805461 -7.857182608e-05 0.0) (0.0005165379743 -8.60090023e-05 0.0) (0.0005186223265 -9.421376241e-05 0.0) (0.0005209467156 -0.0001032171842 0.0) (0.0005235223302 -0.0001130223612 0.0) (0.0005263558856 -0.0001235872794 0.0) (0.0005294419413 -0.0001347983559 0.0) (0.0005327417294 -0.0001464241386 0.0) (0.0005361372037 -0.0001580329654 0.0) (0.0005393503475 -0.0001688202298 0.0) (0.0005418730861 -0.0001773076436 0.0) (0.0005419268544 -0.0001819429828 0.0) (0.0005349815837 -0.0001786899523 0.0) (0.0005116872603 -0.0001621461419 0.0) (0.0004591102768 -0.000127324676 0.0) (0.000351604235 -7.709740998e-05 0.0) (0.0001586539575 -1.224124727e-05 0.0) (0.000122141737 6.808483759e-06 0.0) (0.0002984313765 5.228122271e-05 0.0) (0.0004140965807 9.760029675e-05 0.0) (0.0004823836081 0.0001355412446 0.0) (0.000519705178 0.0001601763247 0.0) (0.0005385503055 0.0001728135206 0.0) (0.0005454734127 0.0001757847252 0.0) (0.000546833589 0.0001728171282 0.0) (0.0005462081096 0.0001659893287 0.0) (0.0005439331906 0.0001569733645 0.0) (0.0005409267741 0.0001468633117 0.0) (0.0005376439316 0.0001363699091 0.0) (0.0005343261489 0.0001259526052 0.0) (0.0005311063193 0.0001159004225 0.0) (0.0005280603703 0.0001063855421 0.0) (0.0005252310296 9.749977288e-05 0.0) (0.0005226401524 8.92802522e-05 0.0) (0.00052029554 8.17273714e-05 0.0) (0.0005181951059 7.481747795e-05 0.0) (0.0005163296407 6.851193951e-05 0.0) (0.0005146849252 6.276372545e-05 0.0) (0.0005132435065 5.752208611e-05 0.0) (0.000511986157 5.273585677e-05 0.0) (0.0005108930908 4.83556371e-05 0.0) (0.0005099448933 4.433516472e-05 0.0) (0.0005091232066 4.063207629e-05 0.0) (0.0005084111694 3.720820594e-05 0.0) (0.0005077936647 3.402958548e-05 0.0) (0.0005072574031 3.106624107e-05 0.0) (0.0005067908951 2.829186495e-05 0.0) (0.0005063843393 2.568343074e-05 0.0) (0.0005060294688 2.322079014e-05 0.0) (0.0005057193701 2.08862798e-05 0.0) (0.0005054483053 1.866435539e-05 0.0) (0.0005052115353 1.654126356e-05 0.0) (0.0005050051656 1.450475145e-05 0.0) (0.0005048260038 1.254381833e-05 0.0) (0.000504671445 1.064849864e-05 0.0) (0.000504539367 8.80968415e-06 0.0) (0.0005044280552 7.018962855e-06 0.0) (0.0005043361283 5.268496469e-06 0.0) (0.0005042625002 3.55089049e-06 0.0) (0.0005042063357 1.859103763e-06 0.0) (0.0005041670572 1.863646179e-07 0.0) (0.0005041442644 -1.473831736e-06 0.0) (0.0005041376348 -3.127871529e-06 0.0) (0.0005041471211 -4.782242339e-06 0.0) (0.0005041729201 -6.443346719e-06 0.0) (0.0005042153607 -8.117626075e-06 0.0) (0.0005042749761 -9.811733216e-06 0.0) (0.0005043525281 -1.153261151e-05 0.0) (0.0005044490813 -1.328751414e-05 0.0) (0.000504565993 -1.508414047e-05 0.0) (0.0005047049818 -1.693074087e-05 0.0) (0.0005048681817 -1.883627459e-05 0.0) (0.00050505823 -2.081055968e-05 0.0) (0.0005052783639 -2.286446653e-05 0.0) (0.0005055325349 -2.501013285e-05 0.0) (0.000505825547 -2.726122168e-05 0.0) (0.0005061632092 -2.963321306e-05 0.0) (0.0005065525095 -3.214373539e-05 0.0) (0.0005070017903 -3.481293161e-05 0.0) (0.0005075209286 -3.766385391e-05 0.0) (0.0005081214902 -4.072286746e-05 0.0) (0.0005088168439 -4.402003689e-05 0.0) (0.000509622193 -4.758945348e-05 0.0) (0.0005105544973 -5.146944603e-05 0.0) (0.0005116322344 -5.570259038e-05 0.0) (0.0005128749649 -6.033541419e-05 0.0) (0.0005143026606 -6.541765715e-05 0.0) (0.0005159347713 -7.100091773e-05 0.0) (0.0005177890179 -7.713647791e-05 0.0) (0.0005198799153 -8.387203908e-05 0.0) (0.0005222170077 -9.124703559e-05 0.0) (0.0005248027454 -9.92860778e-05 0.0) (0.0005276297328 -0.0001079898419 0.0) (0.0005306766886 -0.0001173224573 0.0) (0.0005339016999 -0.0001271936659 0.0) (0.0005372299834 -0.0001374330048 0.0) (0.0005405305447 -0.0001477543466 0.0) (0.0005435629931 -0.000157701373 0.0) (0.0005458713133 -0.000166565895 0.0) (0.0005465325421 -0.0001732592097 0.0) (0.0005452392074 -0.0001760940958 0.0) (0.0005383730685 -0.0001730052907 0.0) (0.0005195738223 -0.0001602922546 0.0) (0.000482312162 -0.0001356027988 0.0) (0.0004140754258 -9.76241452e-05 0.0) (0.0002984446912 -5.228589134e-05 0.0) (0.0001221607663 -6.807503231e-06 0.0) (9.950607971e-05 3.998944129e-06 0.0) (0.0002578621302 3.610694037e-05 0.0) (0.000373226044 7.410860795e-05 0.0) (0.0004501419443 0.0001102965335 0.0) (0.0004984213433 0.000137712787 0.0) (0.0005269433026 0.0001555107147 0.0) (0.0005422514865 0.0001647856638 0.0) (0.0005495315198 0.0001669841345 0.0) (0.0005522548491 0.0001644831692 0.0) (0.0005521310495 0.0001588545486 0.0) (0.000550313644 0.0001512380777 0.0) (0.0005475375083 0.0001424877642 0.0) (0.0005442645096 0.0001332167964 0.0) (0.000540786522 0.0001238511759 0.0) (0.0005372944995 0.0001146782779 0.0) (0.0005339122022 0.0001058812648 0.0) (0.0005307178809 9.756853257e-05 0.0) (0.0005277581796 8.979516709e-05 0.0) (0.0005250569463 8.257880904e-05 0.0) (0.0005226215169 7.591161057e-05 0.0) (0.0005204473826 6.976910949e-05 0.0) (0.0005185218503 6.411687041e-05 0.0) (0.0005168270062 5.891524051e-05 0.0) (0.0005153420401 5.412275644e-05 0.0) (0.0005140450437 4.969842984e-05 0.0) (0.0005129143243 4.560320567e-05 0.0) (0.0005119293084 4.180081956e-05 0.0) (0.0005110711037 3.825820007e-05 0.0) (0.0005103227934 3.494556744e-05 0.0) (0.0005096695309 3.183633552e-05 0.0) (0.0005090984955 2.890688948e-05 0.0) (0.0005085987584 2.613629876e-05 0.0) (0.0005081611003 2.350600598e-05 0.0) (0.0005077778073 2.09995174e-05 0.0) (0.0005074424673 1.860211047e-05 0.0) (0.0005071497771 1.630056869e-05 0.0) (0.0005068953703 1.40829438e-05 0.0) (0.0005066756644 1.193835081e-05 0.0) (0.0005064877357 9.856785574e-06 0.0) (0.0005063292086 7.828974726e-06 0.0) (0.0005061981762 5.846235532e-06 0.0) (0.0005060931234 3.900367443e-06 0.0) (0.0005060128917 1.983538964e-06 0.0) (0.0005059566313 8.821592157e-08 0.0) (0.0005059237744 -1.792912713e-06 0.0) (0.0005059139571 -3.667032025e-06 0.0) (0.0005059271253 -5.541304384e-06 0.0) (0.0005059634816 -7.422892025e-06 0.0) (0.0005060235041 -9.319033412e-06 0.0) (0.0005061079315 -1.123717232e-05 0.0) (0.0005062178575 -1.318501017e-05 0.0) (0.000506354737 -1.517061211e-05 0.0) (0.0005065204569 -1.720249462e-05 0.0) (0.0005067173855 -1.928976752e-05 0.0) (0.0005069484691 -2.144226406e-05 0.0) (0.0005072173309 -2.367071066e-05 0.0) (0.0005075284004 -2.598690698e-05 0.0) (0.0005078870585 -2.840394185e-05 0.0) (0.0005082998079 -3.093643341e-05 0.0) (0.0005087744613 -3.360080069e-05 0.0) (0.0005093203423 -3.641555763e-05 0.0) (0.0005099484865 -3.940162497e-05 0.0) (0.000510671823 -4.258264288e-05 0.0) (0.000511505309 -4.598525878e-05 0.0) (0.0005124659771 -4.963935014e-05 0.0) (0.0005135728465 -5.35781283e-05 0.0) (0.0005148466372 -5.783804282e-05 0.0) (0.0005163092184 -6.245838477e-05 0.0) (0.0005179827183 -6.748045056e-05 0.0) (0.0005198882208 -7.294609634e-05 0.0) (0.0005220439767 -7.889546969e-05 0.0) (0.0005244630713 -8.53636466e-05 0.0) (0.0005271504639 -9.237586496e-05 0.0) (0.0005300992952 -9.994092002e-05 0.0) (0.0005332862115 -0.0001080422408 0.0) (0.000536665175 -0.0001166258964 0.0) (0.000540158664 -0.0001255849256 0.0) (0.0005436439245 -0.0001347375205 0.0) (0.0005469320263 -0.0001437987697 0.0) (0.0005497337689 -0.0001523458483 0.0) (0.0005515884976 -0.0001597687103 0.0) (0.0005517606693 -0.0001652165511 0.0) (0.0005490942432 -0.0001675536563 0.0) (0.000541881025 -0.0001652112535 0.0) (0.0005266551199 -0.0001557967197 0.0) (0.0004982116176 -0.000137894139 0.0) (0.000450012989 -0.0001103989333 0.0) (0.0003731685877 -7.415486328e-05 0.0) (0.0002578574438 -3.612042699e-05 0.0) (9.952120013e-05 -3.998675392e-06 0.0) (8.412077122e-05 2.399195211e-06 0.0) (0.0002266155954 2.556340253e-05 0.0) (0.0003381260079 5.646323516e-05 0.0) (0.0004190797553 8.875737648e-05 0.0) (0.0004748382795 0.0001159351738 0.0) (0.0005114591097 0.0001359808983 0.0) (0.0005341777913 0.0001488052851 0.0) (0.0005473965849 0.0001551863326 0.0) (0.0005543817918 0.0001565509895 0.0) (0.0005572090848 0.0001542385876 0.0) (0.0005573104022 0.0001493388868 0.0) (0.0005556719175 0.0001427275912 0.0) (0.0005529653814 0.0001350826341 0.0) (0.0005496443326 0.0001269061416 0.0) (0.0005460283768 0.0001185671205 0.0) (0.0005423384497 0.0001103211854 0.0) (0.0005387238987 0.000102338481 0.0) (0.0005352830359 9.472569999e-05 0.0) (0.0005320766459 8.754232673e-05 0.0) (0.0005291375594 8.081377379e-05 0.0) (0.0005264781173 7.454169668e-05 0.0) (0.0005240960489 6.871181599e-05 0.0) (0.0005219791386 6.329990791e-05 0.0) (0.0005201089423 5.827612417e-05 0.0) (0.0005184636343 5.360810748e-05 0.0) (0.0005170201325 4.926312165e-05 0.0) (0.0005157555984 4.520942652e-05 0.0) (0.0005146484306 4.141711322e-05 0.0) (0.000513678857 3.7858542e-05 0.0) (0.0005128292267 3.450850115e-05 0.0) (0.0005120840857 3.134418628e-05 0.0) (0.0005114301106 2.834506768e-05 0.0) (0.0005108559521 2.549269389e-05 0.0) (0.0005103520367 2.277046783e-05 0.0) (0.0005099103483 2.016341815e-05 0.0) (0.0005095242171 1.765797824e-05 0.0) (0.0005091881204 1.524178351e-05 0.0) (0.0005088975084 1.290348592e-05 0.0) (0.0005086486502 1.063259306e-05 0.0) (0.0005084385095 8.41932118e-06 0.0) (0.0005082646359 6.254473377e-06 0.0) (0.0005081250883 4.129323042e-06 0.0) (0.0005080183627 2.035522064e-06 0.0) (0.0005079433568 -3.499062265e-08 0.0) (0.0005078993183 -2.09006046e-06 0.0) (0.0005078858287 -4.137407952e-06 0.0) (0.0005079028019 -6.184706786e-06 0.0) (0.000507950499 -8.239640162e-06 0.0) (0.0005080295141 -1.030998936e-05 0.0) (0.0005081408314 -1.240370981e-05 0.0) (0.0005082858462 -1.452902639e-05 0.0) (0.000508466436 -1.669450961e-05 0.0) (0.0005086850086 -1.890919166e-05 0.0) (0.0005089445961 -2.118267554e-05 0.0) (0.0005092489518 -2.352527647e-05 0.0) (0.0005096026795 -2.594816761e-05 0.0) (0.0005100113802 -2.846355366e-05 0.0) (0.0005104818243 -3.108485877e-05 0.0) (0.0005110221442 -3.382693798e-05 0.0) (0.0005116420422 -3.670630138e-05 0.0) (0.0005123530039 -3.974134721e-05 0.0) (0.0005131684942 -4.295258809e-05 0.0) (0.0005141041118 -4.636284925e-05 0.0) (0.0005151776565 -4.99974029e-05 0.0) (0.0005164090581 -5.388399149e-05 0.0) (0.0005178200911 -5.805266925e-05 0.0) (0.0005194337943 -6.253537344e-05 0.0) (0.0005212734932 -6.736510079e-05 0.0) (0.0005233613157 -7.257454058e-05 0.0) (0.0005257160877 -7.819397026e-05 0.0) (0.0005283504879 -8.424817881e-05 0.0) (0.0005312673408 -9.07521452e-05 0.0) (0.000534454906 -9.770511294e-05 0.0) (0.0005378809749 -0.0001050827148 0.0) (0.0005414854093 -0.0001128265606 0.0) (0.0005451705196 -0.0001208312362 0.0) (0.0005487876295 -0.0001289274542 0.0) (0.0005521183226 -0.0001368616527 0.0) (0.0005548449926 -0.0001442685998 0.0) (0.0005565172777 -0.0001506482696 0.0) (0.0005564653868 -0.000155328128 0.0) (0.0005537008318 -0.0001574332214 0.0) (0.0005467907266 -0.0001558779104 0.0) (0.0005336599282 -0.0001493257686 0.0) (0.0005110408218 -0.0001363486071 0.0) (0.0004745250847 -0.0001161761003 0.0) (0.0004188727837 -8.88982899e-05 0.0) (0.0003380159856 -5.653081112e-05 0.0) (0.0002265819101 -2.558533589e-05 0.0) (8.41275181e-05 -2.399565497e-06 0.0) (7.324132081e-05 1.512917734e-06 0.0) (0.0002024328445 1.861657874e-05 0.0) (0.0003087681882 4.344732828e-05 0.0) (0.0003908774811 7.125288339e-05 0.0) (0.0004513723635 9.651894588e-05 0.0) (0.0004941442584 0.0001168483588 0.0) (0.0005231162081 0.0001314690849 0.0) (0.0005418471507 0.0001405513736 0.0) (0.000553223567 0.0001448758245 0.0) (0.0005593666357 0.0001454041737 0.0) (0.0005618405467 0.0001430514685 0.0) (0.000561802902 0.0001386189509 0.0) (0.0005600923827 0.0001327813879 0.0) (0.0005573034042 0.0001260520024 0.0) (0.0005538794487 0.0001188421336 0.0) (0.0005501401215 0.0001114535897 0.0) (0.000546312202 0.0001041016133 0.0) (0.0005425530215 9.693462489e-05 0.0) (0.0005389675363 9.004882774e-05 0.0) (0.0005356208761 8.35008153e-05 0.0) (0.0005325481762 7.731808724e-05 0.0) (0.0005297625901 7.150754514e-05 0.0) (0.000527261773 6.606196992e-05 0.0) (0.0005250330288 6.096506127e-05 0.0) (0.0005230573398 5.619510824e-05 0.0) (0.0005213123954 5.172764371e-05 0.0) (0.0005197747902 4.753728973e-05 0.0) (0.0005184215331 4.359897288e-05 0.0) (0.0005172310129 3.988867944e-05 0.0) (0.0005161835484 3.638388103e-05 0.0) (0.0005152616384 3.306372569e-05 0.0) (0.0005144500022 2.990907222e-05 0.0) (0.0005137354877 2.690242762e-05 0.0) (0.0005131069008 2.402782673e-05 0.0) (0.0005125547986 2.12706828e-05 0.0) (0.0005120712712 1.861762888e-05 0.0) (0.0005116497334 1.605635983e-05 0.0) (0.0005112847319 1.357548473e-05 0.0) (0.000510971779 1.116438852e-05 0.0) (0.000510707206 8.813110411e-06 0.0) (0.0005104880484 6.512230065e-06 0.0) (0.0005103119454 4.252771469e-06 0.0) (0.0005101770711 2.026110082e-06 0.0) (0.0005100820715 -1.761036445e-07 0.0) (0.000510026032 -2.362022268e-06 0.0) (0.0005100084421 -4.53967573e-06 0.0) (0.0005100292043 -6.717042812e-06 0.0) (0.0005100886229 -8.902117711e-06 0.0) (0.0005101874357 -1.110298007e-05 0.0) (0.0005103268324 -1.332787762e-05 0.0) (0.0005105085175 -1.558529871e-05 0.0) (0.0005107347576 -1.788406427e-05 0.0) (0.0005110084688 -2.023341657e-05 0.0) (0.0005113333051 -2.264313168e-05 0.0) (0.0005117137823 -2.512363351e-05 0.0) (0.0005121554153 -2.768612836e-05 0.0) (0.0005126648845 -3.034274659e-05 0.0) (0.0005132502213 -3.310670004e-05 0.0) (0.0005139210119 -3.599244455e-05 0.0) (0.0005146886098 -3.901584513e-05 0.0) (0.0005155663376 -4.219432912e-05 0.0) (0.000516569654 -4.554701015e-05 0.0) (0.0005177162445 -4.909475332e-05 0.0) (0.0005190259812 -5.286014231e-05 0.0) (0.0005205206787 -5.686728987e-05 0.0) (0.0005222235517 -6.114141915e-05 0.0) (0.0005241582656 -6.570811129e-05 0.0) (0.0005263474458 -7.059209968e-05 0.0) (0.0005288105076 -7.581544549e-05 0.0) (0.0005315606454 -8.13949123e-05 0.0) (0.0005346008253 -8.733831167e-05 0.0) (0.0005379186103 -9.36395443e-05 0.0) (0.0005414796481 -0.0001002720837 0.0) (0.0005452195609 -0.0001071804665 0.0) (0.0005490339861 -0.0001142697398 0.0) (0.0005527659565 -0.0001213923196 0.0) (0.0005561903571 -0.0001283332274 0.0) (0.0005589914551 -0.0001347952581 0.0) (0.0005607276131 -0.0001403664512 0.0) (0.0005608093152 -0.0001445468677 0.0) (0.0005583970688 -0.0001466556881 0.0) (0.0005523312575 -0.0001458976211 0.0) (0.0005410474627 -0.0001413588713 0.0) (0.0005224247167 -0.0001320821309 0.0) (0.0004935755929 -0.0001172889269 0.0) (0.0004509355927 -9.681283927e-05 0.0) (0.0003905747026 -7.14283228e-05 0.0) (0.000308590988 -4.353387907e-05 0.0) (0.0002023600832 -1.86459476e-05 0.0) (7.323566766e-05 -1.513799296e-06 0.0) (6.532186545e-05 1.010476235e-06 0.0) (0.0001836025427 1.392010171e-05 0.0) (0.0002845450664 3.383108698e-05 0.0) (0.0003661260825 5.731732072e-05 0.0) (0.000429341411 7.993898437e-05 0.0) (0.0004765414964 9.935849993e-05 0.0) (0.0005105181438 0.0001144827194 0.0) (0.0005340421279 0.0001250594329 0.0) (0.0005495603612 0.0001314114908 0.0) (0.000559061537 0.0001341473899 0.0) (0.0005641156971 0.0001339637069 0.0) (0.0005659460099 0.0001314931929 0.0) (0.000565537282 0.0001274524576 0.0) (0.0005635836955 0.0001222398564 0.0) (0.0005606277294 0.0001162925506 0.0) (0.0005570801856 0.0001099308807 0.0) (0.0005532433904 0.0001033973984 0.0) (0.0005493358585 9.686944306e-05 0.0) (0.0005455102524 9.047139076e-05 0.0) (0.0005418679577 8.428570608e-05 0.0) (0.0005384709838 7.836287051e-05 0.0) (0.0005353517559 7.272951947e-05 0.0) (0.0005325212243 6.739519063e-05 0.0) (0.0005299754383 6.235748096e-05 0.0) (0.000527700724 5.760608779e-05 0.0) (0.0005256776621 5.31257949e-05 0.0) (0.0005238840202 4.889863885e-05 0.0) (0.0005222968292 4.490543527e-05 0.0) (0.0005208937704 4.112681046e-05 0.0) (0.0005196540321 3.754385883e-05 0.0) (0.0005185587737 3.413853275e-05 0.0) (0.0005175913122 3.089384471e-05 0.0) (0.0005167371225 2.779393916e-05 0.0) (0.0005159837238 2.482408205e-05 0.0) (0.0005153205019 2.197059958e-05 0.0) (0.0005147385049 1.922078841e-05 0.0) (0.0005142302346 1.656281395e-05 0.0) (0.0005137894514 1.398560386e-05 0.0) (0.0005134109955 1.147874629e-05 0.0) (0.0005130906363 9.032391108e-06 0.0) (0.0005128249404 6.637161673e-06 0.0) (0.0005126111704 4.284069844e-06 0.0) (0.0005124471984 1.964442354e-06 0.0) (0.0005123314489 -3.301514843e-07 0.0) (0.000512262849 -2.60796417e-06 0.0) (0.0005122408081 -4.877136872e-06 0.0) (